Compiler and run-time data
===========================================================================
RASPA 2.0.47
Compiled as a 64-bits application
Compiler: gcc 11.4.0
Compile Date = Jan 13 2025, Compile Time = 15:28:09

Fri Sep 19 08:12:46 2025
Simulation started on Friday, September 19.
The start time was 08:12 AM.

Hostname:    c020
OS type:     Linux on x86_64
OS release:  5.15.0-47-generic
OS version:  #51-Ubuntu SMP Thu Aug 11 07:51:15 UTC 2022

Simulation
===========================================================================
Dimensions: 3
Random number seed: 1758287566
RASPA directory set to: /users/mengd/opt/apps/raspa/RASPA2/simulations/
String appended to output-files: 
Number of cycles: 100000
Number of initializing cycles: 10000
Number of equilibration cycles: 0
Print every: 1000
Triclinic boundary condition applied
Timestep: 0.000500
	Degrees of freedom:                        0
	Translational Degrees of freedom:          0
	Rotational Degrees of freedom:             0
	Degrees of freedom Framework:              0


Mutual consistent basic set of units:
======================================
Unit of temperature: Kelvin
Unit of length:      1e-10 [m]
Unit of time:        1e-12 [s]
Unit of mass:        1.66054e-27 [kg]
Unit of charge:      1.60218e-19 [C/particle]

Derived units and their conversion factors:
===========================================
Unit of energy:              1.66054e-23 [J]
Unit of force:               1.66054e-13 [N]
Unit of pressure:            1.66054e+07 [Pa]
Unit of velocity:            100 [m/s]
Unit of acceleration:        1e-08 [m^2/s]
Unit of diffusion:           1e-08 [m^2/s]
Unit of dipole moment:       1.60218e-29 [C.m]
Unit of electric potential:  0.000103643 [V]
Unit of electric field:      1.03643e+06 [V]
Unit of polarizability:      1.54587e-35 [-]
Unit of Coulomb potential:   167101.0800066561  [K]
Unit of dielectric constant: 0.0000154587       [s^2 C^2/(kg m^3)]
Unit of wave vectors:        5.3088374589       [cm^1]
Boltzmann constant:          0.8314464919       [-]

Internal conversion factors:
===========================================
Energy to Kelvin:                                    1.2027242847
FH correction factor                                 2.0211930949
Heat capacity conversion factor:                    10.0000088723
From Debye to internal units:                        4.8032067991
Isothermal compressibility conversion factor:        0.0000000602

Energy conversion factors:
===========================================
From mdyne/A to kcal/mol/A^2:           143.933
From mdyne/A to kj/mol/A^2:             602.214
From mdyne/A to K/A^2:                  72429.7
From mdyne A/rad^2 to kcal/mol/deg^2:   0.0438444


Properties computed
===========================================================================
Movies: yes
	Movie snapshots are appended to file every 5000 cycles
Radial Distribution Function: no
Number of molecules GCMC histogram: no
Histogram of the molecule positions: no
Free energy profiles: no
Pore Size Distribution Function: no
End-to-end distance: no
Histogram of the energy of the system: no
Compute thermodynamic factors: no
Framework spacing histograms: no
Residence times histograms: no
Distance histograms: no
Bend Angle histograms: no
Dihedral angle histograms: no
Angle between planes histograms: no
Molecule properties: no
Infra-red spectra: no
Mean-squared displacement using modified order-N algorithm: no
Velocity-autocorrelation function modified order-N algorithm: no
Rotational velocity-autocorrelation function modified order-N algorithm: no
Molecular orientation-autocorrelation function modified order-N algorithm: no
Bond orientation-autocorrelation function modified order-N algorithm: no
Mean-squared displacement (conventional algorithm): no
Velocity-autocorrelation function (conventional algorithm): no
3D density grid for adsorbates: no
Compute cation an/or adsorption sites: no
dcTST snapshots: no
Compute pressure and stress: no


VTK
===========================================================================
VTK fractional-range position framework atoms: [-0.001000,1.001000] [-0.001000,1.001000] [-0.001000,1.001000]
VTK fractional-range position framework bonds: [-0.151000,1.151000] [-0.151000,1.151000] [-0.151000,1.151000]
VTK fractional-range com-position adsorbate molecules: [-0.101000,1.101000] [-0.101000,1.101000] [-0.101000,1.101000]
VTK fractional-range com-position cation molecules: [-0.101000,1.101000] [-0.101000,1.101000] [-0.101000,1.101000]
	3D free energy grid made for the full simulation-cell


Thermo/Baro-stat NHC parameters
===========================================================================
External temperature: 298 [K]
Beta: 0.00403598 [energy unit]
External Pressure: 2000 [Pa]


Thermostat chain-length: 3
Timescale parameter for thermostat: 0.150000 [ps]
Barostat chain-length:   3
Timescale parameter for barostat:   0.150000 [ps]

Number of Yoshida-Suzuki decomposition steps: 5
Number of respa steps: 5


Method and settings for electrostatics
===============================================================================
Dielectric constant of the medium : 1.000000
Charge from charge-equilibration: no
Ewald summation is used (exact solution of a periodic system)
Relative precision                : 1e-06
Alpha convergence parameter       : 0.265058
kvec (x,y,z)                      : 8 8 8


CFC-RXMC parameters
===========================================================================
Number of reactions: 0


Rattle parameters
===========================================================================
Distance constraint type: r^2-r^2_0
Bend angle constraint type: theta-theta_0
Dihedral angle constraint type: phi-phi_0
Inversion-bend angle constraint type: chi-chi_0
Out-of-plane distance constraint type: r-r_0


Spectra parameters
===========================================================================
Compute normal modes: no


Minimization parameters
===========================================================================
Generalized coordinates are: Cartesian center-of-mass, elements of the orientational matrix p1,p2,p3 and strain
Potential derivatives are evaluated: analytically
Translation of the system is removed from the generalized Hessian: no
Rotation of the system is removed from the generalized Hessian: no
Maximum step-length: 0.3
Convergence factor: 1
Maximum number of minimization steps: 10000
Use gradients in the line-minimizations: yes
RMS gradient tolerance: 1e-06
Maximum gradient tolerance: 1e-06

Distance constraints: 0
Angle constraints: 0
Dihedral constraints: 0

Improper dihedral constraints: 0

Inversion-bend constraints: 0

Out-of-plane constraints: 0

Harmonic distance constraints: 0
Harmonic angle constraints: 0
Harmonic dihedral constraints: 0

Dihedral mid-point measurements: 0

All framework atoms are fixed

Fixed adsorbate atoms:  
Fixed adsorbate groups (center-of-mass):  
Fixed adsorbate groups (orientation):  

Fixed cation atoms:  
Fixed cation groups (center-of-mass):  
Fixed cation groups (orientation):  


dcTST parameters
===========================================================================
Free energy profiles computed: no
Free energy profiles written every 5000 cycles
Free energy mapping: mapped to a,b,c-coordinates
BarrierPosition:       0.0000000000       0.0000000000       0.0000000000
BarrierNormal:         0.0000000000       0.0000000000       0.0000000000
Start with a molecule on top of the barrier: no
Maximum distance to barrier (e.g. distance to minumum free energy):       0.0000000000 [A]
Maximum trajectory time:      10.0000000000 [ps]
Each configuration is used with 5 different initial velocities


Cbmc parameters
===========================================================================
Biasing method: using only the VDW part
Number of trial positions:                                       10
Number of trial positions (reinsertion):                         10
Number of trial positions (partial reinsertion):                 10
Number of trial positions (identity-change):                     10
Number of trial positions (Gibbs particle transfer):             10
Number of trial positions (insertion/deletion):                  10
Number of trial positions (Widom insertion):                     10
Number of trial positions coupled Torsion-selection:             100
Number of trial positions first bead:                            10
Number of trial positions first bead (reinsertion):              10
Number of trial positions first bead (partial reinsertion):      10
Number of trial positions first bead (identity-change):          10
Number of trial positions first bead (Gibbs particle transfer):  10
Number of trial positions first bead (insertion/deletion):       10
Number of trial positions first bead (Widom insertion):          10
Number of trial moves per open bead:                             150
Target acceptance ratio small-mc scheme:                         0.400000
Energy overlap criteria:                                         1e+07
Minimal Rosenbluth factor:                                       1e-150


Pseudo atoms: 80
===========================================================================
Pseudo Atom[   0] Name UNIT     Oxidation:          Element: H    pdb-name: H    Scat. Types:   1   1 Mass=1.000000000  B-factor:0.000   
                 Charge=1.000000000          Polarization=0.000000000  [A^3] (considered a charged atom and no polarization)  Interactions: yes
                 Anisotropic factor:    0.000 [-] (Absolute), Radius:    1.000 [A], Framework-atom:  no
Pseudo Atom[   1] Name O_CO2    Oxidation: +0       Element: O    pdb-name: O    Scat. Types:   9   8 Mass=15.999600000 B-factor:1.000   
                 Charge=-0.350000000         Polarization=0.000000000  [A^3] (considered a charged atom and no polarization)  Interactions: yes
                 Anisotropic factor:    0.000 [-] (Absolute), Radius:    1.000 [A], Framework-atom:  no
Pseudo Atom[   2] Name C_CO2    Oxidation: +0       Element: C    pdb-name: C    Scat. Types:   7   6 Mass=12.011000000 B-factor:1.000   
                 Charge=0.700000000          Polarization=0.000000000  [A^3] (considered a charged atom and no polarization)  Interactions: yes
                 Anisotropic factor:    0.000 [-] (Absolute), Radius:    1.000 [A], Framework-atom:  no
Pseudo Atom[   3] Name CH2      Oxidation: +0       Element: C    pdb-name: C    Scat. Types:   7   6 Mass=14.012600000 B-factor:1.000   
                 Charge=0.000000000          Polarization=0.000000000  [A^3] (considered a chargeless atom and no polarization)  Interactions: yes
                 Anisotropic factor:    0.000 [-] (Absolute), Radius:    1.000 [A], Framework-atom:  no
Pseudo Atom[   4] Name Mg       Oxidation: +0       Element: Mg   pdb-name: Mg   Scat. Types:  13  12 Mass=24.305000000 B-factor:1.000   
                 Charge=-0.834000000         Polarization=0.000000000  [A^3] (considered a charged atom and no polarization)  Interactions: yes
                 Anisotropic factor:    0.000 [-] (Absolute), Radius:    1.000 [A], Framework-atom:  no
Pseudo Atom[   5] Name Cu       Oxidation: +0       Element: Cu   pdb-name: Cu   Scat. Types:  30  29 Mass=63.546000000 B-factor:1.000   
                 Charge=1.080000000          Polarization=0.000000000  [A^3] (considered a charged atom and no polarization)  Interactions: yes
                 Anisotropic factor:    0.000 [-] (Absolute), Radius:    1.000 [A], Framework-atom:  no
Pseudo Atom[   6] Name Co       Oxidation: +0       Element: Co   pdb-name: Co   Scat. Types:  28  27 Mass=58.933000000 B-factor:1.000   
                 Charge=0.944000000          Polarization=0.000000000  [A^3] (considered a charged atom and no polarization)  Interactions: yes
                 Anisotropic factor:    0.000 [-] (Absolute), Radius:    1.000 [A], Framework-atom:  no
Pseudo Atom[   7] Name Fe       Oxidation: +0       Element: Fe   pdb-name: Fe   Scat. Types:  27  26 Mass=55.845000000 B-factor:1.000   
                 Charge=1.090000000          Polarization=0.000000000  [A^3] (considered a charged atom and no polarization)  Interactions: yes
                 Anisotropic factor:    0.000 [-] (Absolute), Radius:    1.000 [A], Framework-atom:  no
Pseudo Atom[   8] Name Mn       Oxidation: +0       Element: Mn   pdb-name: Mn   Scat. Types:  26  25 Mass=54.938000000 B-factor:1.000   
                 Charge=1.232000000          Polarization=0.000000000  [A^3] (considered a charged atom and no polarization)  Interactions: yes
                 Anisotropic factor:    0.000 [-] (Absolute), Radius:    1.000 [A], Framework-atom:  no
Pseudo Atom[   9] Name Ni       Oxidation: +0       Element: Ni   pdb-name: Ni   Scat. Types:  29  28 Mass=58.693000000 B-factor:1.000   
                 Charge=0.915000000          Polarization=0.000000000  [A^3] (considered a charged atom and no polarization)  Interactions: yes
                 Anisotropic factor:    0.000 [-] (Absolute), Radius:    1.000 [A], Framework-atom:  no
Pseudo Atom[  10] Name Zn       Oxidation: +0       Element: Zn   pdb-name: Zn   Scat. Types:  31  30 Mass=65.380000000 B-factor:1.000   
                 Charge=1.171000000          Polarization=0.000000000  [A^3] (considered a charged atom and no polarization)  Interactions: yes
                 Anisotropic factor:    0.000 [-] (Absolute), Radius:    1.000 [A], Framework-atom:  no
Pseudo Atom[  11] Name C        Oxidation: +0       Element: C    pdb-name: C    Scat. Types:   7   6 Mass=12.011000000 B-factor:1.000   
                 Charge=0.417000000          Polarization=0.000000000  [A^3] (considered a charged atom and no polarization)  Interactions: yes
                 Anisotropic factor:    0.000 [-] (Absolute), Radius:    1.000 [A], Framework-atom:  no
Pseudo Atom[  12] Name O        Oxidation: +0       Element: O    pdb-name: O    Scat. Types:   9   8 Mass=15.999600000 B-factor:1.000   
                 Charge=-0.834000000         Polarization=0.000000000  [A^3] (considered a charged atom and no polarization)  Interactions: yes
                 Anisotropic factor:    0.000 [-] (Absolute), Radius:    1.000 [A], Framework-atom:  no
Pseudo Atom[  13] Name H        Oxidation: +0       Element: H    pdb-name: H    Scat. Types:   1   1 Mass=1.000800000  B-factor:1.000   
                 Charge=0.417000000          Polarization=0.000000000  [A^3] (considered a charged atom and no polarization)  Interactions: yes
                 Anisotropic factor:    0.000 [-] (Absolute), Radius:    1.000 [A], Framework-atom:  no
Pseudo Atom[  14] Name OwH2O_TIP4P Oxidation: +0       Element: O    pdb-name: O    Scat. Types:   9   8 Mass=15.999600000 B-factor:1.000   
                 Charge=0.000000000          Polarization=0.000000000  [A^3] (considered a chargeless atom and no polarization)  Interactions: yes
                 Anisotropic factor:    0.000 [-] (Absolute), Radius:    1.000 [A], Framework-atom:  no
Pseudo Atom[  15] Name HwH2O_TIP4P Oxidation: +0       Element: H    pdb-name: H    Scat. Types:   1   1 Mass=1.000800000  B-factor:1.000   
                 Charge=0.520000000          Polarization=0.000000000  [A^3] (considered a charged atom and no polarization)  Interactions: yes
                 Anisotropic factor:    0.000 [-] (Absolute), Radius:    1.000 [A], Framework-atom:  no
Pseudo Atom[  16] Name MwH2O_TIP4P Oxidation: +0       Element: -    pdb-name: M    Scat. Types:   0  12 Mass=0.000000000  B-factor:1.000   
                 Charge=-1.040000000         Polarization=0.000000000  [A^3] (considered a charged atom and no polarization)  Interactions: yes
                 Anisotropic factor:    0.000 [-] (Absolute), Radius:    1.000 [A], Framework-atom:  no
Pseudo Atom[  17] Name OwH2O_TIP4PEW Oxidation: +0       Element: O    pdb-name: O    Scat. Types:   9   8 Mass=15.999600000 B-factor:1.000   
                 Charge=0.000000000          Polarization=0.000000000  [A^3] (considered a chargeless atom and no polarization)  Interactions: yes
                 Anisotropic factor:    0.000 [-] (Absolute), Radius:    1.000 [A], Framework-atom:  no
Pseudo Atom[  18] Name HwH2O_TIP4PEW Oxidation: +0       Element: H    pdb-name: H    Scat. Types:   1   1 Mass=1.000800000  B-factor:1.000   
                 Charge=0.524220000          Polarization=0.000000000  [A^3] (considered a charged atom and no polarization)  Interactions: yes
                 Anisotropic factor:    0.000 [-] (Absolute), Radius:    1.000 [A], Framework-atom:  no
Pseudo Atom[  19] Name MwH2O_TIP4PEW Oxidation: +0       Element: -    pdb-name: M    Scat. Types:   0  12 Mass=0.000000000  B-factor:1.000   
                 Charge=-1.048440000         Polarization=0.000000000  [A^3] (considered a charged atom and no polarization)  Interactions: yes
                 Anisotropic factor:    0.000 [-] (Absolute), Radius:    1.000 [A], Framework-atom:  no
Pseudo Atom[  20] Name OwH2O_TIP5P Oxidation: +0       Element: O    pdb-name: O    Scat. Types:   9   8 Mass=15.999600000 B-factor:1.000   
                 Charge=0.000000000          Polarization=0.000000000  [A^3] (considered a chargeless atom and no polarization)  Interactions: yes
                 Anisotropic factor:    0.000 [-] (Absolute), Radius:    1.000 [A], Framework-atom:  no
Pseudo Atom[  21] Name HwH2O_TIP5P Oxidation: +0       Element: H    pdb-name: H    Scat. Types:   1   1 Mass=1.000800000  B-factor:1.000   
                 Charge=0.241000000          Polarization=0.000000000  [A^3] (considered a charged atom and no polarization)  Interactions: yes
                 Anisotropic factor:    0.000 [-] (Absolute), Radius:    1.000 [A], Framework-atom:  no
Pseudo Atom[  22] Name MwH2O_TIP5P Oxidation: +0       Element: -    pdb-name: M    Scat. Types:   0  12 Mass=0.000000000  B-factor:1.000   
                 Charge=-0.241000000         Polarization=0.000000000  [A^3] (considered a charged atom and no polarization)  Interactions: yes
                 Anisotropic factor:    0.000 [-] (Absolute), Radius:    1.000 [A], Framework-atom:  no
Pseudo Atom[  23] Name OwH2O_TIP5PEW Oxidation: +0       Element: O    pdb-name: O    Scat. Types:   9   8 Mass=15.999600000 B-factor:1.000   
                 Charge=0.000000000          Polarization=0.000000000  [A^3] (considered a chargeless atom and no polarization)  Interactions: yes
                 Anisotropic factor:    0.000 [-] (Absolute), Radius:    1.000 [A], Framework-atom:  no
Pseudo Atom[  24] Name HwH2O_TIP5PEW Oxidation: +0       Element: H    pdb-name: H    Scat. Types:   1   1 Mass=1.000800000  B-factor:1.000   
                 Charge=0.241000000          Polarization=0.000000000  [A^3] (considered a charged atom and no polarization)  Interactions: yes
                 Anisotropic factor:    0.000 [-] (Absolute), Radius:    1.000 [A], Framework-atom:  no
Pseudo Atom[  25] Name MwH2O_TIP5PEW Oxidation: +0       Element: -    pdb-name: M    Scat. Types:   0  12 Mass=0.000000000  B-factor:1.000   
                 Charge=-0.241000000         Polarization=0.000000000  [A^3] (considered a charged atom and no polarization)  Interactions: yes
                 Anisotropic factor:    0.000 [-] (Absolute), Radius:    1.000 [A], Framework-atom:  no
Pseudo Atom[  26] Name Mg0      Oxidation:          Element: Mg   pdb-name: Mg   Scat. Types:  13  12 Mass=24.305051612 B-factor:0.000   
                 Charge=1.406928000    (av)  Polarization=10.600000000 [A^3] (considered a charged atom and no polarization)  Interactions: yes
                 Anisotropic factor:    0.000 [-] (Absolute), Radius:    1.400 [A], Framework-atom: yes (charge from structure file)
Pseudo Atom[  27] Name Mg1      Oxidation:          Element: Mg   pdb-name: Mg   Scat. Types:  13  12 Mass=24.305051612 B-factor:0.000   
                 Charge=1.407919000    (av)  Polarization=10.600000000 [A^3] (considered a charged atom and no polarization)  Interactions: yes
                 Anisotropic factor:    0.000 [-] (Absolute), Radius:    1.400 [A], Framework-atom: yes (charge from structure file)
Pseudo Atom[  28] Name Mg2      Oxidation:          Element: Mg   pdb-name: Mg   Scat. Types:  13  12 Mass=24.305051612 B-factor:0.000   
                 Charge=1.408025000    (av)  Polarization=10.600000000 [A^3] (considered a charged atom and no polarization)  Interactions: yes
                 Anisotropic factor:    0.000 [-] (Absolute), Radius:    1.400 [A], Framework-atom: yes (charge from structure file)
Pseudo Atom[  29] Name Mg3      Oxidation:          Element: Mg   pdb-name: Mg   Scat. Types:  13  12 Mass=24.305051612 B-factor:0.000   
                 Charge=1.406924000    (av)  Polarization=10.600000000 [A^3] (considered a charged atom and no polarization)  Interactions: yes
                 Anisotropic factor:    0.000 [-] (Absolute), Radius:    1.400 [A], Framework-atom: yes (charge from structure file)
Pseudo Atom[  30] Name Mg4      Oxidation:          Element: Mg   pdb-name: Mg   Scat. Types:  13  12 Mass=24.305051612 B-factor:0.000   
                 Charge=1.407853000    (av)  Polarization=10.600000000 [A^3] (considered a charged atom and no polarization)  Interactions: yes
                 Anisotropic factor:    0.000 [-] (Absolute), Radius:    1.400 [A], Framework-atom: yes (charge from structure file)
Pseudo Atom[  31] Name Mg5      Oxidation:          Element: Mg   pdb-name: Mg   Scat. Types:  13  12 Mass=24.305051612 B-factor:0.000   
                 Charge=1.408036000    (av)  Polarization=10.600000000 [A^3] (considered a charged atom and no polarization)  Interactions: yes
                 Anisotropic factor:    0.000 [-] (Absolute), Radius:    1.400 [A], Framework-atom: yes (charge from structure file)
Pseudo Atom[  32] Name H6       Oxidation:          Element: H    pdb-name: H    Scat. Types:   1   1 Mass=1.007940754  B-factor:0.000   
                 Charge=0.132848000    (av)  Polarization=0.666793000  [A^3] (considered a charged atom and no polarization)  Interactions: yes
                 Anisotropic factor:    0.000 [-] (Absolute), Radius:    0.320 [A], Framework-atom: yes (charge from structure file)
Pseudo Atom[  33] Name H7       Oxidation:          Element: H    pdb-name: H    Scat. Types:   1   1 Mass=1.007940754  B-factor:0.000   
                 Charge=0.132742000    (av)  Polarization=0.666793000  [A^3] (considered a charged atom and no polarization)  Interactions: yes
                 Anisotropic factor:    0.000 [-] (Absolute), Radius:    0.320 [A], Framework-atom: yes (charge from structure file)
Pseudo Atom[  34] Name H8       Oxidation:          Element: H    pdb-name: H    Scat. Types:   1   1 Mass=1.007940754  B-factor:0.000   
                 Charge=0.132422000    (av)  Polarization=0.666793000  [A^3] (considered a charged atom and no polarization)  Interactions: yes
                 Anisotropic factor:    0.000 [-] (Absolute), Radius:    0.320 [A], Framework-atom: yes (charge from structure file)
Pseudo Atom[  35] Name H9       Oxidation:          Element: H    pdb-name: H    Scat. Types:   1   1 Mass=1.007940754  B-factor:0.000   
                 Charge=0.132849000    (av)  Polarization=0.666793000  [A^3] (considered a charged atom and no polarization)  Interactions: yes
                 Anisotropic factor:    0.000 [-] (Absolute), Radius:    0.320 [A], Framework-atom: yes (charge from structure file)
Pseudo Atom[  36] Name H10      Oxidation:          Element: H    pdb-name: H    Scat. Types:   1   1 Mass=1.007940754  B-factor:0.000   
                 Charge=0.132723000    (av)  Polarization=0.666793000  [A^3] (considered a charged atom and no polarization)  Interactions: yes
                 Anisotropic factor:    0.000 [-] (Absolute), Radius:    0.320 [A], Framework-atom: yes (charge from structure file)
Pseudo Atom[  37] Name H11      Oxidation:          Element: H    pdb-name: H    Scat. Types:   1   1 Mass=1.007940754  B-factor:0.000   
                 Charge=0.132393000    (av)  Polarization=0.666793000  [A^3] (considered a charged atom and no polarization)  Interactions: yes
                 Anisotropic factor:    0.000 [-] (Absolute), Radius:    0.320 [A], Framework-atom: yes (charge from structure file)
Pseudo Atom[  38] Name C12      Oxidation:          Element: C    pdb-name: C    Scat. Types:   7   6 Mass=12.010735897 B-factor:0.000   
                 Charge=0.336357000    (av)  Polarization=1.760000000  [A^3] (considered a charged atom and no polarization)  Interactions: yes
                 Anisotropic factor:    0.000 [-] (Absolute), Radius:    0.750 [A], Framework-atom: yes (charge from structure file)
Pseudo Atom[  39] Name C13      Oxidation:          Element: C    pdb-name: C    Scat. Types:   7   6 Mass=12.010735897 B-factor:0.000   
                 Charge=0.334591000    (av)  Polarization=1.760000000  [A^3] (considered a charged atom and no polarization)  Interactions: yes
                 Anisotropic factor:    0.000 [-] (Absolute), Radius:    0.750 [A], Framework-atom: yes (charge from structure file)
Pseudo Atom[  40] Name C14      Oxidation:          Element: C    pdb-name: C    Scat. Types:   7   6 Mass=12.010735897 B-factor:0.000   
                 Charge=0.335749000    (av)  Polarization=1.760000000  [A^3] (considered a charged atom and no polarization)  Interactions: yes
                 Anisotropic factor:    0.000 [-] (Absolute), Radius:    0.750 [A], Framework-atom: yes (charge from structure file)
Pseudo Atom[  41] Name C15      Oxidation:          Element: C    pdb-name: C    Scat. Types:   7   6 Mass=12.010735897 B-factor:0.000   
                 Charge=0.336332000    (av)  Polarization=1.760000000  [A^3] (considered a charged atom and no polarization)  Interactions: yes
                 Anisotropic factor:    0.000 [-] (Absolute), Radius:    0.750 [A], Framework-atom: yes (charge from structure file)
Pseudo Atom[  42] Name C16      Oxidation:          Element: C    pdb-name: C    Scat. Types:   7   6 Mass=12.010735897 B-factor:0.000   
                 Charge=0.334567000    (av)  Polarization=1.760000000  [A^3] (considered a charged atom and no polarization)  Interactions: yes
                 Anisotropic factor:    0.000 [-] (Absolute), Radius:    0.750 [A], Framework-atom: yes (charge from structure file)
Pseudo Atom[  43] Name C17      Oxidation:          Element: C    pdb-name: C    Scat. Types:   7   6 Mass=12.010735897 B-factor:0.000   
                 Charge=0.335773000    (av)  Polarization=1.760000000  [A^3] (considered a charged atom and no polarization)  Interactions: yes
                 Anisotropic factor:    0.000 [-] (Absolute), Radius:    0.750 [A], Framework-atom: yes (charge from structure file)
Pseudo Atom[  44] Name C18      Oxidation:          Element: C    pdb-name: C    Scat. Types:   7   6 Mass=12.010735897 B-factor:0.000   
                 Charge=0.678806000    (av)  Polarization=1.760000000  [A^3] (considered a charged atom and no polarization)  Interactions: yes
                 Anisotropic factor:    0.000 [-] (Absolute), Radius:    0.750 [A], Framework-atom: yes (charge from structure file)
Pseudo Atom[  45] Name C19      Oxidation:          Element: C    pdb-name: C    Scat. Types:   7   6 Mass=12.010735897 B-factor:0.000   
                 Charge=0.678709000    (av)  Polarization=1.760000000  [A^3] (considered a charged atom and no polarization)  Interactions: yes
                 Anisotropic factor:    0.000 [-] (Absolute), Radius:    0.750 [A], Framework-atom: yes (charge from structure file)
Pseudo Atom[  46] Name C20      Oxidation:          Element: C    pdb-name: C    Scat. Types:   7   6 Mass=12.010735897 B-factor:0.000   
                 Charge=0.675981000    (av)  Polarization=1.760000000  [A^3] (considered a charged atom and no polarization)  Interactions: yes
                 Anisotropic factor:    0.000 [-] (Absolute), Radius:    0.750 [A], Framework-atom: yes (charge from structure file)
Pseudo Atom[  47] Name C21      Oxidation:          Element: C    pdb-name: C    Scat. Types:   7   6 Mass=12.010735897 B-factor:0.000   
                 Charge=0.678787000    (av)  Polarization=1.760000000  [A^3] (considered a charged atom and no polarization)  Interactions: yes
                 Anisotropic factor:    0.000 [-] (Absolute), Radius:    0.750 [A], Framework-atom: yes (charge from structure file)
Pseudo Atom[  48] Name C22      Oxidation:          Element: C    pdb-name: C    Scat. Types:   7   6 Mass=12.010735897 B-factor:0.000   
                 Charge=0.678802000    (av)  Polarization=1.760000000  [A^3] (considered a charged atom and no polarization)  Interactions: yes
                 Anisotropic factor:    0.000 [-] (Absolute), Radius:    0.750 [A], Framework-atom: yes (charge from structure file)
Pseudo Atom[  49] Name C23      Oxidation:          Element: C    pdb-name: C    Scat. Types:   7   6 Mass=12.010735897 B-factor:0.000   
                 Charge=0.676041000    (av)  Polarization=1.760000000  [A^3] (considered a charged atom and no polarization)  Interactions: yes
                 Anisotropic factor:    0.000 [-] (Absolute), Radius:    0.750 [A], Framework-atom: yes (charge from structure file)
Pseudo Atom[  50] Name C24      Oxidation:          Element: C    pdb-name: C    Scat. Types:   7   6 Mass=12.010735897 B-factor:0.000   
                 Charge=-0.204058000   (av)  Polarization=1.760000000  [A^3] (considered a charged atom and no polarization)  Interactions: yes
                 Anisotropic factor:    0.000 [-] (Absolute), Radius:    0.750 [A], Framework-atom: yes (charge from structure file)
Pseudo Atom[  51] Name C25      Oxidation:          Element: C    pdb-name: C    Scat. Types:   7   6 Mass=12.010735897 B-factor:0.000   
                 Charge=-0.204362000   (av)  Polarization=1.760000000  [A^3] (considered a charged atom and no polarization)  Interactions: yes
                 Anisotropic factor:    0.000 [-] (Absolute), Radius:    0.750 [A], Framework-atom: yes (charge from structure file)
Pseudo Atom[  52] Name C26      Oxidation:          Element: C    pdb-name: C    Scat. Types:   7   6 Mass=12.010735897 B-factor:0.000   
                 Charge=-0.204230000   (av)  Polarization=1.760000000  [A^3] (considered a charged atom and no polarization)  Interactions: yes
                 Anisotropic factor:    0.000 [-] (Absolute), Radius:    0.750 [A], Framework-atom: yes (charge from structure file)
Pseudo Atom[  53] Name C27      Oxidation:          Element: C    pdb-name: C    Scat. Types:   7   6 Mass=12.010735897 B-factor:0.000   
                 Charge=-0.204010000   (av)  Polarization=1.760000000  [A^3] (considered a charged atom and no polarization)  Interactions: yes
                 Anisotropic factor:    0.000 [-] (Absolute), Radius:    0.750 [A], Framework-atom: yes (charge from structure file)
Pseudo Atom[  54] Name C28      Oxidation:          Element: C    pdb-name: C    Scat. Types:   7   6 Mass=12.010735897 B-factor:0.000   
                 Charge=-0.204272000   (av)  Polarization=1.760000000  [A^3] (considered a charged atom and no polarization)  Interactions: yes
                 Anisotropic factor:    0.000 [-] (Absolute), Radius:    0.750 [A], Framework-atom: yes (charge from structure file)
Pseudo Atom[  55] Name C29      Oxidation:          Element: C    pdb-name: C    Scat. Types:   7   6 Mass=12.010735897 B-factor:0.000   
                 Charge=-0.204213000   (av)  Polarization=1.760000000  [A^3] (considered a charged atom and no polarization)  Interactions: yes
                 Anisotropic factor:    0.000 [-] (Absolute), Radius:    0.750 [A], Framework-atom: yes (charge from structure file)
Pseudo Atom[  56] Name C30      Oxidation:          Element: C    pdb-name: C    Scat. Types:   7   6 Mass=12.010735897 B-factor:0.000   
                 Charge=-0.164125000   (av)  Polarization=1.760000000  [A^3] (considered a charged atom and no polarization)  Interactions: yes
                 Anisotropic factor:    0.000 [-] (Absolute), Radius:    0.750 [A], Framework-atom: yes (charge from structure file)
Pseudo Atom[  57] Name C31      Oxidation:          Element: C    pdb-name: C    Scat. Types:   7   6 Mass=12.010735897 B-factor:0.000   
                 Charge=-0.162848000   (av)  Polarization=1.760000000  [A^3] (considered a charged atom and no polarization)  Interactions: yes
                 Anisotropic factor:    0.000 [-] (Absolute), Radius:    0.750 [A], Framework-atom: yes (charge from structure file)
Pseudo Atom[  58] Name C32      Oxidation:          Element: C    pdb-name: C    Scat. Types:   7   6 Mass=12.010735897 B-factor:0.000   
                 Charge=-0.162958000   (av)  Polarization=1.760000000  [A^3] (considered a charged atom and no polarization)  Interactions: yes
                 Anisotropic factor:    0.000 [-] (Absolute), Radius:    0.750 [A], Framework-atom: yes (charge from structure file)
Pseudo Atom[  59] Name C33      Oxidation:          Element: C    pdb-name: C    Scat. Types:   7   6 Mass=12.010735897 B-factor:0.000   
                 Charge=-0.164111000   (av)  Polarization=1.760000000  [A^3] (considered a charged atom and no polarization)  Interactions: yes
                 Anisotropic factor:    0.000 [-] (Absolute), Radius:    0.750 [A], Framework-atom: yes (charge from structure file)
Pseudo Atom[  60] Name C34      Oxidation:          Element: C    pdb-name: C    Scat. Types:   7   6 Mass=12.010735897 B-factor:0.000   
                 Charge=-0.162813000   (av)  Polarization=1.760000000  [A^3] (considered a charged atom and no polarization)  Interactions: yes
                 Anisotropic factor:    0.000 [-] (Absolute), Radius:    0.750 [A], Framework-atom: yes (charge from structure file)
Pseudo Atom[  61] Name C35      Oxidation:          Element: C    pdb-name: C    Scat. Types:   7   6 Mass=12.010735897 B-factor:0.000   
                 Charge=-0.162990000   (av)  Polarization=1.760000000  [A^3] (considered a charged atom and no polarization)  Interactions: yes
                 Anisotropic factor:    0.000 [-] (Absolute), Radius:    0.750 [A], Framework-atom: yes (charge from structure file)
Pseudo Atom[  62] Name O36      Oxidation:          Element: O    pdb-name: O    Scat. Types:   9   8 Mass=15.999404927 B-factor:0.000   
                 Charge=-0.790472000   (av)  Polarization=0.802000000  [A^3] (considered a charged atom and no polarization)  Interactions: yes
                 Anisotropic factor:    0.000 [-] (Absolute), Radius:    0.640 [A], Framework-atom: yes (charge from structure file)
Pseudo Atom[  63] Name O37      Oxidation:          Element: O    pdb-name: O    Scat. Types:   9   8 Mass=15.999404927 B-factor:0.000   
                 Charge=-0.789549000   (av)  Polarization=0.802000000  [A^3] (considered a charged atom and no polarization)  Interactions: yes
                 Anisotropic factor:    0.000 [-] (Absolute), Radius:    0.640 [A], Framework-atom: yes (charge from structure file)
Pseudo Atom[  64] Name O38      Oxidation:          Element: O    pdb-name: O    Scat. Types:   9   8 Mass=15.999404927 B-factor:0.000   
                 Charge=-0.790621000   (av)  Polarization=0.802000000  [A^3] (considered a charged atom and no polarization)  Interactions: yes
                 Anisotropic factor:    0.000 [-] (Absolute), Radius:    0.640 [A], Framework-atom: yes (charge from structure file)
Pseudo Atom[  65] Name O39      Oxidation:          Element: O    pdb-name: O    Scat. Types:   9   8 Mass=15.999404927 B-factor:0.000   
                 Charge=-0.790477000   (av)  Polarization=0.802000000  [A^3] (considered a charged atom and no polarization)  Interactions: yes
                 Anisotropic factor:    0.000 [-] (Absolute), Radius:    0.640 [A], Framework-atom: yes (charge from structure file)
Pseudo Atom[  66] Name O40      Oxidation:          Element: O    pdb-name: O    Scat. Types:   9   8 Mass=15.999404927 B-factor:0.000   
                 Charge=-0.789525000   (av)  Polarization=0.802000000  [A^3] (considered a charged atom and no polarization)  Interactions: yes
                 Anisotropic factor:    0.000 [-] (Absolute), Radius:    0.640 [A], Framework-atom: yes (charge from structure file)
Pseudo Atom[  67] Name O41      Oxidation:          Element: O    pdb-name: O    Scat. Types:   9   8 Mass=15.999404927 B-factor:0.000   
                 Charge=-0.790585000   (av)  Polarization=0.802000000  [A^3] (considered a charged atom and no polarization)  Interactions: yes
                 Anisotropic factor:    0.000 [-] (Absolute), Radius:    0.640 [A], Framework-atom: yes (charge from structure file)
Pseudo Atom[  68] Name O42      Oxidation:          Element: O    pdb-name: O    Scat. Types:   9   8 Mass=15.999404927 B-factor:0.000   
                 Charge=-0.761903000   (av)  Polarization=0.802000000  [A^3] (considered a charged atom and no polarization)  Interactions: yes
                 Anisotropic factor:    0.000 [-] (Absolute), Radius:    0.640 [A], Framework-atom: yes (charge from structure file)
Pseudo Atom[  69] Name O43      Oxidation:          Element: O    pdb-name: O    Scat. Types:   9   8 Mass=15.999404927 B-factor:0.000   
                 Charge=-0.762702000   (av)  Polarization=0.802000000  [A^3] (considered a charged atom and no polarization)  Interactions: yes
                 Anisotropic factor:    0.000 [-] (Absolute), Radius:    0.640 [A], Framework-atom: yes (charge from structure file)
Pseudo Atom[  70] Name O44      Oxidation:          Element: O    pdb-name: O    Scat. Types:   9   8 Mass=15.999404927 B-factor:0.000   
                 Charge=-0.760949000   (av)  Polarization=0.802000000  [A^3] (considered a charged atom and no polarization)  Interactions: yes
                 Anisotropic factor:    0.000 [-] (Absolute), Radius:    0.640 [A], Framework-atom: yes (charge from structure file)
Pseudo Atom[  71] Name O45      Oxidation:          Element: O    pdb-name: O    Scat. Types:   9   8 Mass=15.999404927 B-factor:0.000   
                 Charge=-0.761893000   (av)  Polarization=0.802000000  [A^3] (considered a charged atom and no polarization)  Interactions: yes
                 Anisotropic factor:    0.000 [-] (Absolute), Radius:    0.640 [A], Framework-atom: yes (charge from structure file)
Pseudo Atom[  72] Name O46      Oxidation:          Element: O    pdb-name: O    Scat. Types:   9   8 Mass=15.999404927 B-factor:0.000   
                 Charge=-0.762743000   (av)  Polarization=0.802000000  [A^3] (considered a charged atom and no polarization)  Interactions: yes
                 Anisotropic factor:    0.000 [-] (Absolute), Radius:    0.640 [A], Framework-atom: yes (charge from structure file)
Pseudo Atom[  73] Name O47      Oxidation:          Element: O    pdb-name: O    Scat. Types:   9   8 Mass=15.999404927 B-factor:0.000   
                 Charge=-0.760959000   (av)  Polarization=0.802000000  [A^3] (considered a charged atom and no polarization)  Interactions: yes
                 Anisotropic factor:    0.000 [-] (Absolute), Radius:    0.640 [A], Framework-atom: yes (charge from structure file)
Pseudo Atom[  74] Name O48      Oxidation:          Element: O    pdb-name: O    Scat. Types:   9   8 Mass=15.999404927 B-factor:0.000   
                 Charge=-0.634872000   (av)  Polarization=0.802000000  [A^3] (considered a charged atom and no polarization)  Interactions: yes
                 Anisotropic factor:    0.000 [-] (Absolute), Radius:    0.640 [A], Framework-atom: yes (charge from structure file)
Pseudo Atom[  75] Name O49      Oxidation:          Element: O    pdb-name: O    Scat. Types:   9   8 Mass=15.999404927 B-factor:0.000   
                 Charge=-0.634336000   (av)  Polarization=0.802000000  [A^3] (considered a charged atom and no polarization)  Interactions: yes
                 Anisotropic factor:    0.000 [-] (Absolute), Radius:    0.640 [A], Framework-atom: yes (charge from structure file)
Pseudo Atom[  76] Name O50      Oxidation:          Element: O    pdb-name: O    Scat. Types:   9   8 Mass=15.999404927 B-factor:0.000   
                 Charge=-0.633147000   (av)  Polarization=0.802000000  [A^3] (considered a charged atom and no polarization)  Interactions: yes
                 Anisotropic factor:    0.000 [-] (Absolute), Radius:    0.640 [A], Framework-atom: yes (charge from structure file)
Pseudo Atom[  77] Name O51      Oxidation:          Element: O    pdb-name: O    Scat. Types:   9   8 Mass=15.999404927 B-factor:0.000   
                 Charge=-0.634865000   (av)  Polarization=0.802000000  [A^3] (considered a charged atom and no polarization)  Interactions: yes
                 Anisotropic factor:    0.000 [-] (Absolute), Radius:    0.640 [A], Framework-atom: yes (charge from structure file)
Pseudo Atom[  78] Name O52      Oxidation:          Element: O    pdb-name: O    Scat. Types:   9   8 Mass=15.999404927 B-factor:0.000   
                 Charge=-0.634393000   (av)  Polarization=0.802000000  [A^3] (considered a charged atom and no polarization)  Interactions: yes
                 Anisotropic factor:    0.000 [-] (Absolute), Radius:    0.640 [A], Framework-atom: yes (charge from structure file)
Pseudo Atom[  79] Name O53      Oxidation:          Element: O    pdb-name: O    Scat. Types:   9   8 Mass=15.999404927 B-factor:0.000   
                 Charge=-0.633180000   (av)  Polarization=0.802000000  [A^3] (considered a charged atom and no polarization)  Interactions: yes
                 Anisotropic factor:    0.000 [-] (Absolute), Radius:    0.640 [A], Framework-atom: yes (charge from structure file)


Forcefield: local
===========================================================================
Minimal distance: 1
CutOff VDW : 12.800000 (163.840000)
CutOff VDW switching on: 11.520000 (132.710400)
CutOff charge-charge : 12.000000 (144.000000)
CutOff charge-charge switching on: 7.800000 (60.840000)
CutOff charge-bonddipole : 12.000000 (144.000000)
CutOff charge-bondipole switching on: 8.400000 (70.560000)
CutOff bonddipole-bonddipole : 12.000000 (144.000000)
CutOff bonddipole-bondipole switching on: 9.000000 (81.000000)
Polarization is neglected
All potentials are unshifted !!!!!!

General mixing rule: Lorentz-Berthelot mixing rules are used FIRST for cross terms
0 cross terms are overwritten using the individual mixing rules from the file 'force_field_mixing_rules.def'
and then 87 terms are overwritten using the specific interactions from the file 'force_field.def'

The force field and all the interactions:
  O_CO2 -   O_CO2 [LENNARD_JONES] p_0/k_B:  79.00000 [K], p_1: 3.05000 [A], shift/k_B:   0.00000000 [K], tailcorrection: no
  O_CO2 -   C_CO2 [LENNARD_JONES] p_0/k_B:  46.18441 [K], p_1: 2.92500 [A], shift/k_B:   0.00000000 [K], tailcorrection: no
  O_CO2 -     CH2 [LENNARD_JONES] p_0/k_B:  81.94510 [K], p_1: 3.36250 [A], shift/k_B:   0.00000000 [K], tailcorrection: no
  O_CO2 -      Mg [GENERIC2_HC] p_0/k_B:  0.00000 [K], p_1:  0.00000 [A^-1], p_2/k_B: 18656.00000 [K A^4], p_3/k_B: 5716.00000 [K A^6], p_4/k_B:  0.00000 [K A^8], p_5/k_B: -12209018.00000 [K A^12]
  O_CO2 -      Cu [GENERIC2_HC] p_0/k_B:  0.00000 [K], p_1:  0.00000 [A^-1], p_2/k_B: 19527.00000 [K A^4], p_3/k_B: 7702.00000 [K A^6], p_4/k_B:  0.00000 [K A^8], p_5/k_B: -11506934.00000 [K A^12]
  O_CO2 -      Co [GENERIC2_HC] p_0/k_B:  0.00000 [K], p_1:  0.00000 [A^-1], p_2/k_B: 19615.00000 [K A^4], p_3/k_B: 8433.00000 [K A^6], p_4/k_B:  0.00000 [K A^8], p_5/k_B: -18318458.00000 [K A^12]
  O_CO2 -      Fe [GENERIC2_HC] p_0/k_B:  0.00000 [K], p_1:  0.00000 [A^-1], p_2/k_B: 20941.00000 [K A^4], p_3/k_B: 10584.00000 [K A^6], p_4/k_B:  0.00000 [K A^8], p_5/k_B: -21458475.00000 [K A^12]
  O_CO2 -      Mn [GENERIC2_HC] p_0/k_B:  0.00000 [K], p_1:  0.00000 [A^-1], p_2/k_B: 21384.00000 [K A^4], p_3/k_B: 8231.00000 [K A^6], p_4/k_B:  0.00000 [K A^8], p_5/k_B: -22597098.00000 [K A^12]
  O_CO2 -      Ni [GENERIC2_HC] p_0/k_B:  0.00000 [K], p_1:  0.00000 [A^-1], p_2/k_B: 19231.00000 [K A^4], p_3/k_B: 7980.00000 [K A^6], p_4/k_B:  0.00000 [K A^8], p_5/k_B: -16015320.00000 [K A^12]
  O_CO2 -      Zn [GENERIC2_HC] p_0/k_B:  0.00000 [K], p_1:  0.00000 [A^-1], p_2/k_B: 11430.00000 [K A^4], p_3/k_B: 5555.00000 [K A^6], p_4/k_B:  0.00000 [K A^8], p_5/k_B: -16349877.00000 [K A^12]
  O_CO2 -       C [LENNARD_JONES] p_0/k_B:  61.48691 [K], p_1: 3.26150 [A], shift/k_B:   0.00000000 [K], tailcorrection: no
  O_CO2 -       O [LENNARD_JONES] p_0/k_B:  61.68055 [K], p_1: 3.04157 [A], shift/k_B:   0.00000000 [K], tailcorrection: no
  O_CO2 -       H [LENNARD_JONES] p_0/k_B:  24.58181 [K], p_1: 2.94821 [A], shift/k_B:   0.00000000 [K], tailcorrection: no
  O_CO2 - OwH2O_TIP4P [LENNARD_JONES] p_0/k_B:  78.49841 [K], p_1: 3.10200 [A], shift/k_B:   0.00000000 [K], tailcorrection: no
  O_CO2 - HwH2O_TIP4P [ZERO_POTENTIAL]
  O_CO2 - MwH2O_TIP4P [ZERO_POTENTIAL]
  O_CO2 - OwH2O_TIP4PEW [LENNARD_JONES] p_0/k_B:  80.43693 [K], p_1: 3.10700 [A], shift/k_B:   0.00000000 [K], tailcorrection: no
  O_CO2 - HwH2O_TIP4PEW [ZERO_POTENTIAL]
  O_CO2 - MwH2O_TIP4PEW [ZERO_POTENTIAL]
  O_CO2 - OwH2O_TIP5P [LENNARD_JONES] p_0/k_B:  79.75638 [K], p_1: 3.08500 [A], shift/k_B:   0.00000000 [K], tailcorrection: no
  O_CO2 - HwH2O_TIP5P [ZERO_POTENTIAL]
  O_CO2 - MwH2O_TIP5P [ZERO_POTENTIAL]
  O_CO2 - OwH2O_TIP5PEW [LENNARD_JONES] p_0/k_B:  84.11914 [K], p_1: 3.07350 [A], shift/k_B:   0.00000000 [K], tailcorrection: no
  O_CO2 - HwH2O_TIP5PEW [ZERO_POTENTIAL]
  O_CO2 - MwH2O_TIP5PEW [ZERO_POTENTIAL]
  O_CO2 -     Mg0 [GENERIC2_HC] p_0/k_B:  0.00000 [K], p_1:  0.00000 [A^-1], p_2/k_B: 18656.00000 [K A^4], p_3/k_B: 5716.00000 [K A^6], p_4/k_B:  0.00000 [K A^8], p_5/k_B: -12209018.00000 [K A^12]
  O_CO2 -     Mg1 [GENERIC2_HC] p_0/k_B:  0.00000 [K], p_1:  0.00000 [A^-1], p_2/k_B: 18656.00000 [K A^4], p_3/k_B: 5716.00000 [K A^6], p_4/k_B:  0.00000 [K A^8], p_5/k_B: -12209018.00000 [K A^12]
  O_CO2 -     Mg2 [GENERIC2_HC] p_0/k_B:  0.00000 [K], p_1:  0.00000 [A^-1], p_2/k_B: 18656.00000 [K A^4], p_3/k_B: 5716.00000 [K A^6], p_4/k_B:  0.00000 [K A^8], p_5/k_B: -12209018.00000 [K A^12]
  O_CO2 -     Mg3 [GENERIC2_HC] p_0/k_B:  0.00000 [K], p_1:  0.00000 [A^-1], p_2/k_B: 18656.00000 [K A^4], p_3/k_B: 5716.00000 [K A^6], p_4/k_B:  0.00000 [K A^8], p_5/k_B: -12209018.00000 [K A^12]
  O_CO2 -     Mg4 [GENERIC2_HC] p_0/k_B:  0.00000 [K], p_1:  0.00000 [A^-1], p_2/k_B: 18656.00000 [K A^4], p_3/k_B: 5716.00000 [K A^6], p_4/k_B:  0.00000 [K A^8], p_5/k_B: -12209018.00000 [K A^12]
  O_CO2 -     Mg5 [GENERIC2_HC] p_0/k_B:  0.00000 [K], p_1:  0.00000 [A^-1], p_2/k_B: 18656.00000 [K A^4], p_3/k_B: 5716.00000 [K A^6], p_4/k_B:  0.00000 [K A^8], p_5/k_B: -12209018.00000 [K A^12]
  O_CO2 -      H6 [LENNARD_JONES] p_0/k_B:  24.58181 [K], p_1: 2.94821 [A], shift/k_B:   0.00000000 [K], tailcorrection: no
  O_CO2 -      H7 [LENNARD_JONES] p_0/k_B:  24.58181 [K], p_1: 2.94821 [A], shift/k_B:   0.00000000 [K], tailcorrection: no
  O_CO2 -      H8 [LENNARD_JONES] p_0/k_B:  24.58181 [K], p_1: 2.94821 [A], shift/k_B:   0.00000000 [K], tailcorrection: no
  O_CO2 -      H9 [LENNARD_JONES] p_0/k_B:  24.58181 [K], p_1: 2.94821 [A], shift/k_B:   0.00000000 [K], tailcorrection: no
  O_CO2 -     H10 [LENNARD_JONES] p_0/k_B:  24.58181 [K], p_1: 2.94821 [A], shift/k_B:   0.00000000 [K], tailcorrection: no
  O_CO2 -     H11 [LENNARD_JONES] p_0/k_B:  24.58181 [K], p_1: 2.94821 [A], shift/k_B:   0.00000000 [K], tailcorrection: no
  O_CO2 -     C12 [LENNARD_JONES] p_0/k_B:  61.48691 [K], p_1: 3.26150 [A], shift/k_B:   0.00000000 [K], tailcorrection: no
  O_CO2 -     C13 [LENNARD_JONES] p_0/k_B:  61.48691 [K], p_1: 3.26150 [A], shift/k_B:   0.00000000 [K], tailcorrection: no
  O_CO2 -     C14 [LENNARD_JONES] p_0/k_B:  61.48691 [K], p_1: 3.26150 [A], shift/k_B:   0.00000000 [K], tailcorrection: no
  O_CO2 -     C15 [LENNARD_JONES] p_0/k_B:  61.48691 [K], p_1: 3.26150 [A], shift/k_B:   0.00000000 [K], tailcorrection: no
  O_CO2 -     C16 [LENNARD_JONES] p_0/k_B:  61.48691 [K], p_1: 3.26150 [A], shift/k_B:   0.00000000 [K], tailcorrection: no
  O_CO2 -     C17 [LENNARD_JONES] p_0/k_B:  61.48691 [K], p_1: 3.26150 [A], shift/k_B:   0.00000000 [K], tailcorrection: no
  O_CO2 -     C18 [LENNARD_JONES] p_0/k_B:  61.48691 [K], p_1: 3.26150 [A], shift/k_B:   0.00000000 [K], tailcorrection: no
  O_CO2 -     C19 [LENNARD_JONES] p_0/k_B:  61.48691 [K], p_1: 3.26150 [A], shift/k_B:   0.00000000 [K], tailcorrection: no
  O_CO2 -     C20 [LENNARD_JONES] p_0/k_B:  61.48691 [K], p_1: 3.26150 [A], shift/k_B:   0.00000000 [K], tailcorrection: no
  O_CO2 -     C21 [LENNARD_JONES] p_0/k_B:  61.48691 [K], p_1: 3.26150 [A], shift/k_B:   0.00000000 [K], tailcorrection: no
  O_CO2 -     C22 [LENNARD_JONES] p_0/k_B:  61.48691 [K], p_1: 3.26150 [A], shift/k_B:   0.00000000 [K], tailcorrection: no
  O_CO2 -     C23 [LENNARD_JONES] p_0/k_B:  61.48691 [K], p_1: 3.26150 [A], shift/k_B:   0.00000000 [K], tailcorrection: no
  O_CO2 -     C24 [LENNARD_JONES] p_0/k_B:  61.48691 [K], p_1: 3.26150 [A], shift/k_B:   0.00000000 [K], tailcorrection: no
  O_CO2 -     C25 [LENNARD_JONES] p_0/k_B:  61.48691 [K], p_1: 3.26150 [A], shift/k_B:   0.00000000 [K], tailcorrection: no
  O_CO2 -     C26 [LENNARD_JONES] p_0/k_B:  61.48691 [K], p_1: 3.26150 [A], shift/k_B:   0.00000000 [K], tailcorrection: no
  O_CO2 -     C27 [LENNARD_JONES] p_0/k_B:  61.48691 [K], p_1: 3.26150 [A], shift/k_B:   0.00000000 [K], tailcorrection: no
  O_CO2 -     C28 [LENNARD_JONES] p_0/k_B:  61.48691 [K], p_1: 3.26150 [A], shift/k_B:   0.00000000 [K], tailcorrection: no
  O_CO2 -     C29 [LENNARD_JONES] p_0/k_B:  61.48691 [K], p_1: 3.26150 [A], shift/k_B:   0.00000000 [K], tailcorrection: no
  O_CO2 -     C30 [LENNARD_JONES] p_0/k_B:  61.48691 [K], p_1: 3.26150 [A], shift/k_B:   0.00000000 [K], tailcorrection: no
  O_CO2 -     C31 [LENNARD_JONES] p_0/k_B:  61.48691 [K], p_1: 3.26150 [A], shift/k_B:   0.00000000 [K], tailcorrection: no
  O_CO2 -     C32 [LENNARD_JONES] p_0/k_B:  61.48691 [K], p_1: 3.26150 [A], shift/k_B:   0.00000000 [K], tailcorrection: no
  O_CO2 -     C33 [LENNARD_JONES] p_0/k_B:  61.48691 [K], p_1: 3.26150 [A], shift/k_B:   0.00000000 [K], tailcorrection: no
  O_CO2 -     C34 [LENNARD_JONES] p_0/k_B:  61.48691 [K], p_1: 3.26150 [A], shift/k_B:   0.00000000 [K], tailcorrection: no
  O_CO2 -     C35 [LENNARD_JONES] p_0/k_B:  61.48691 [K], p_1: 3.26150 [A], shift/k_B:   0.00000000 [K], tailcorrection: no
  O_CO2 -     O36 [LENNARD_JONES] p_0/k_B:  61.68055 [K], p_1: 3.04157 [A], shift/k_B:   0.00000000 [K], tailcorrection: no
  O_CO2 -     O37 [LENNARD_JONES] p_0/k_B:  61.68055 [K], p_1: 3.04157 [A], shift/k_B:   0.00000000 [K], tailcorrection: no
  O_CO2 -     O38 [LENNARD_JONES] p_0/k_B:  61.68055 [K], p_1: 3.04157 [A], shift/k_B:   0.00000000 [K], tailcorrection: no
  O_CO2 -     O39 [LENNARD_JONES] p_0/k_B:  61.68055 [K], p_1: 3.04157 [A], shift/k_B:   0.00000000 [K], tailcorrection: no
  O_CO2 -     O40 [LENNARD_JONES] p_0/k_B:  61.68055 [K], p_1: 3.04157 [A], shift/k_B:   0.00000000 [K], tailcorrection: no
  O_CO2 -     O41 [LENNARD_JONES] p_0/k_B:  61.68055 [K], p_1: 3.04157 [A], shift/k_B:   0.00000000 [K], tailcorrection: no
  O_CO2 -     O42 [LENNARD_JONES] p_0/k_B:  61.68055 [K], p_1: 3.04157 [A], shift/k_B:   0.00000000 [K], tailcorrection: no
  O_CO2 -     O43 [LENNARD_JONES] p_0/k_B:  61.68055 [K], p_1: 3.04157 [A], shift/k_B:   0.00000000 [K], tailcorrection: no
  O_CO2 -     O44 [LENNARD_JONES] p_0/k_B:  61.68055 [K], p_1: 3.04157 [A], shift/k_B:   0.00000000 [K], tailcorrection: no
  O_CO2 -     O45 [LENNARD_JONES] p_0/k_B:  61.68055 [K], p_1: 3.04157 [A], shift/k_B:   0.00000000 [K], tailcorrection: no
  O_CO2 -     O46 [LENNARD_JONES] p_0/k_B:  61.68055 [K], p_1: 3.04157 [A], shift/k_B:   0.00000000 [K], tailcorrection: no
  O_CO2 -     O47 [LENNARD_JONES] p_0/k_B:  61.68055 [K], p_1: 3.04157 [A], shift/k_B:   0.00000000 [K], tailcorrection: no
  O_CO2 -     O48 [LENNARD_JONES] p_0/k_B:  61.68055 [K], p_1: 3.04157 [A], shift/k_B:   0.00000000 [K], tailcorrection: no
  O_CO2 -     O49 [LENNARD_JONES] p_0/k_B:  61.68055 [K], p_1: 3.04157 [A], shift/k_B:   0.00000000 [K], tailcorrection: no
  O_CO2 -     O50 [LENNARD_JONES] p_0/k_B:  61.68055 [K], p_1: 3.04157 [A], shift/k_B:   0.00000000 [K], tailcorrection: no
  O_CO2 -     O51 [LENNARD_JONES] p_0/k_B:  61.68055 [K], p_1: 3.04157 [A], shift/k_B:   0.00000000 [K], tailcorrection: no
  O_CO2 -     O52 [LENNARD_JONES] p_0/k_B:  61.68055 [K], p_1: 3.04157 [A], shift/k_B:   0.00000000 [K], tailcorrection: no
  O_CO2 -     O53 [LENNARD_JONES] p_0/k_B:  61.68055 [K], p_1: 3.04157 [A], shift/k_B:   0.00000000 [K], tailcorrection: no
  C_CO2 -   C_CO2 [LENNARD_JONES] p_0/k_B:  27.00000 [K], p_1: 2.80000 [A], shift/k_B:   0.00000000 [K], tailcorrection: no
  C_CO2 -     CH2 [LENNARD_JONES] p_0/k_B:  47.90616 [K], p_1: 3.23750 [A], shift/k_B:   0.00000000 [K], tailcorrection: no
  C_CO2 -      Mg [LENNARD_JONES] p_0/k_B:  38.83490 [K], p_1: 2.74571 [A], shift/k_B:   0.00000000 [K], tailcorrection: no
  C_CO2 -      Cu [LENNARD_JONES] p_0/k_B:   8.24225 [K], p_1: 2.95684 [A], shift/k_B:   0.00000000 [K], tailcorrection: no
  C_CO2 -      Co [LENNARD_JONES] p_0/k_B:  13.79191 [K], p_1: 2.67933 [A], shift/k_B:   0.00000000 [K], tailcorrection: no
  C_CO2 -      Fe [LENNARD_JONES] p_0/k_B:  13.29022 [K], p_1: 2.69715 [A], shift/k_B:   0.00000000 [K], tailcorrection: no
  C_CO2 -      Mn [LENNARD_JONES] p_0/k_B:  13.29022 [K], p_1: 2.71897 [A], shift/k_B:   0.00000000 [K], tailcorrection: no
  C_CO2 -      Ni [LENNARD_JONES] p_0/k_B:  14.27599 [K], p_1: 2.66240 [A], shift/k_B:   0.00000000 [K], tailcorrection: no
  C_CO2 -      Zn [LENNARD_JONES] p_0/k_B:  41.04605 [K], p_1: 2.63077 [A], shift/k_B:   0.00000000 [K], tailcorrection: no
  C_CO2 -       C [LENNARD_JONES] p_0/k_B:  35.94603 [K], p_1: 3.13650 [A], shift/k_B:   0.00000000 [K], tailcorrection: no
  C_CO2 -       O [LENNARD_JONES] p_0/k_B:  36.05924 [K], p_1: 2.91657 [A], shift/k_B:   0.00000000 [K], tailcorrection: no
  C_CO2 -       H [LENNARD_JONES] p_0/k_B:  14.37084 [K], p_1: 2.82321 [A], shift/k_B:   0.00000000 [K], tailcorrection: no
  C_CO2 - OwH2O_TIP4P [LENNARD_JONES] p_0/k_B:  45.89118 [K], p_1: 2.97700 [A], shift/k_B:   0.00000000 [K], tailcorrection: no
  C_CO2 - HwH2O_TIP4P [ZERO_POTENTIAL]
  C_CO2 - MwH2O_TIP4P [ZERO_POTENTIAL]
  C_CO2 - OwH2O_TIP4PEW [LENNARD_JONES] p_0/k_B:  47.02446 [K], p_1: 2.98200 [A], shift/k_B:   0.00000000 [K], tailcorrection: no
  C_CO2 - HwH2O_TIP4PEW [ZERO_POTENTIAL]
  C_CO2 - MwH2O_TIP4PEW [ZERO_POTENTIAL]
  C_CO2 - OwH2O_TIP5P [LENNARD_JONES] p_0/k_B:  46.62660 [K], p_1: 2.96000 [A], shift/k_B:   0.00000000 [K], tailcorrection: no
  C_CO2 - HwH2O_TIP5P [ZERO_POTENTIAL]
  C_CO2 - MwH2O_TIP5P [ZERO_POTENTIAL]
  C_CO2 - OwH2O_TIP5PEW [LENNARD_JONES] p_0/k_B:  49.17713 [K], p_1: 2.94850 [A], shift/k_B:   0.00000000 [K], tailcorrection: no
  C_CO2 - HwH2O_TIP5PEW [ZERO_POTENTIAL]
  C_CO2 - MwH2O_TIP5PEW [ZERO_POTENTIAL]
  C_CO2 -     Mg0 [LENNARD_JONES] p_0/k_B:  38.83490 [K], p_1: 2.74571 [A], shift/k_B:   0.00000000 [K], tailcorrection: no
  C_CO2 -     Mg1 [LENNARD_JONES] p_0/k_B:  38.83490 [K], p_1: 2.74571 [A], shift/k_B:   0.00000000 [K], tailcorrection: no
  C_CO2 -     Mg2 [LENNARD_JONES] p_0/k_B:  38.83490 [K], p_1: 2.74571 [A], shift/k_B:   0.00000000 [K], tailcorrection: no
  C_CO2 -     Mg3 [LENNARD_JONES] p_0/k_B:  38.83490 [K], p_1: 2.74571 [A], shift/k_B:   0.00000000 [K], tailcorrection: no
  C_CO2 -     Mg4 [LENNARD_JONES] p_0/k_B:  38.83490 [K], p_1: 2.74571 [A], shift/k_B:   0.00000000 [K], tailcorrection: no
  C_CO2 -     Mg5 [LENNARD_JONES] p_0/k_B:  38.83490 [K], p_1: 2.74571 [A], shift/k_B:   0.00000000 [K], tailcorrection: no
  C_CO2 -      H6 [LENNARD_JONES] p_0/k_B:  14.37084 [K], p_1: 2.82321 [A], shift/k_B:   0.00000000 [K], tailcorrection: no
  C_CO2 -      H7 [LENNARD_JONES] p_0/k_B:  14.37084 [K], p_1: 2.82321 [A], shift/k_B:   0.00000000 [K], tailcorrection: no
  C_CO2 -      H8 [LENNARD_JONES] p_0/k_B:  14.37084 [K], p_1: 2.82321 [A], shift/k_B:   0.00000000 [K], tailcorrection: no
  C_CO2 -      H9 [LENNARD_JONES] p_0/k_B:  14.37084 [K], p_1: 2.82321 [A], shift/k_B:   0.00000000 [K], tailcorrection: no
  C_CO2 -     H10 [LENNARD_JONES] p_0/k_B:  14.37084 [K], p_1: 2.82321 [A], shift/k_B:   0.00000000 [K], tailcorrection: no
  C_CO2 -     H11 [LENNARD_JONES] p_0/k_B:  14.37084 [K], p_1: 2.82321 [A], shift/k_B:   0.00000000 [K], tailcorrection: no
  C_CO2 -     C12 [LENNARD_JONES] p_0/k_B:  35.94603 [K], p_1: 3.13650 [A], shift/k_B:   0.00000000 [K], tailcorrection: no
  C_CO2 -     C13 [LENNARD_JONES] p_0/k_B:  35.94603 [K], p_1: 3.13650 [A], shift/k_B:   0.00000000 [K], tailcorrection: no
  C_CO2 -     C14 [LENNARD_JONES] p_0/k_B:  35.94603 [K], p_1: 3.13650 [A], shift/k_B:   0.00000000 [K], tailcorrection: no
  C_CO2 -     C15 [LENNARD_JONES] p_0/k_B:  35.94603 [K], p_1: 3.13650 [A], shift/k_B:   0.00000000 [K], tailcorrection: no
  C_CO2 -     C16 [LENNARD_JONES] p_0/k_B:  35.94603 [K], p_1: 3.13650 [A], shift/k_B:   0.00000000 [K], tailcorrection: no
  C_CO2 -     C17 [LENNARD_JONES] p_0/k_B:  35.94603 [K], p_1: 3.13650 [A], shift/k_B:   0.00000000 [K], tailcorrection: no
  C_CO2 -     C18 [LENNARD_JONES] p_0/k_B:  35.94603 [K], p_1: 3.13650 [A], shift/k_B:   0.00000000 [K], tailcorrection: no
  C_CO2 -     C19 [LENNARD_JONES] p_0/k_B:  35.94603 [K], p_1: 3.13650 [A], shift/k_B:   0.00000000 [K], tailcorrection: no
  C_CO2 -     C20 [LENNARD_JONES] p_0/k_B:  35.94603 [K], p_1: 3.13650 [A], shift/k_B:   0.00000000 [K], tailcorrection: no
  C_CO2 -     C21 [LENNARD_JONES] p_0/k_B:  35.94603 [K], p_1: 3.13650 [A], shift/k_B:   0.00000000 [K], tailcorrection: no
  C_CO2 -     C22 [LENNARD_JONES] p_0/k_B:  35.94603 [K], p_1: 3.13650 [A], shift/k_B:   0.00000000 [K], tailcorrection: no
  C_CO2 -     C23 [LENNARD_JONES] p_0/k_B:  35.94603 [K], p_1: 3.13650 [A], shift/k_B:   0.00000000 [K], tailcorrection: no
  C_CO2 -     C24 [LENNARD_JONES] p_0/k_B:  35.94603 [K], p_1: 3.13650 [A], shift/k_B:   0.00000000 [K], tailcorrection: no
  C_CO2 -     C25 [LENNARD_JONES] p_0/k_B:  35.94603 [K], p_1: 3.13650 [A], shift/k_B:   0.00000000 [K], tailcorrection: no
  C_CO2 -     C26 [LENNARD_JONES] p_0/k_B:  35.94603 [K], p_1: 3.13650 [A], shift/k_B:   0.00000000 [K], tailcorrection: no
  C_CO2 -     C27 [LENNARD_JONES] p_0/k_B:  35.94603 [K], p_1: 3.13650 [A], shift/k_B:   0.00000000 [K], tailcorrection: no
  C_CO2 -     C28 [LENNARD_JONES] p_0/k_B:  35.94603 [K], p_1: 3.13650 [A], shift/k_B:   0.00000000 [K], tailcorrection: no
  C_CO2 -     C29 [LENNARD_JONES] p_0/k_B:  35.94603 [K], p_1: 3.13650 [A], shift/k_B:   0.00000000 [K], tailcorrection: no
  C_CO2 -     C30 [LENNARD_JONES] p_0/k_B:  35.94603 [K], p_1: 3.13650 [A], shift/k_B:   0.00000000 [K], tailcorrection: no
  C_CO2 -     C31 [LENNARD_JONES] p_0/k_B:  35.94603 [K], p_1: 3.13650 [A], shift/k_B:   0.00000000 [K], tailcorrection: no
  C_CO2 -     C32 [LENNARD_JONES] p_0/k_B:  35.94603 [K], p_1: 3.13650 [A], shift/k_B:   0.00000000 [K], tailcorrection: no
  C_CO2 -     C33 [LENNARD_JONES] p_0/k_B:  35.94603 [K], p_1: 3.13650 [A], shift/k_B:   0.00000000 [K], tailcorrection: no
  C_CO2 -     C34 [LENNARD_JONES] p_0/k_B:  35.94603 [K], p_1: 3.13650 [A], shift/k_B:   0.00000000 [K], tailcorrection: no
  C_CO2 -     C35 [LENNARD_JONES] p_0/k_B:  35.94603 [K], p_1: 3.13650 [A], shift/k_B:   0.00000000 [K], tailcorrection: no
  C_CO2 -     O36 [LENNARD_JONES] p_0/k_B:  36.05924 [K], p_1: 2.91657 [A], shift/k_B:   0.00000000 [K], tailcorrection: no
  C_CO2 -     O37 [LENNARD_JONES] p_0/k_B:  36.05924 [K], p_1: 2.91657 [A], shift/k_B:   0.00000000 [K], tailcorrection: no
  C_CO2 -     O38 [LENNARD_JONES] p_0/k_B:  36.05924 [K], p_1: 2.91657 [A], shift/k_B:   0.00000000 [K], tailcorrection: no
  C_CO2 -     O39 [LENNARD_JONES] p_0/k_B:  36.05924 [K], p_1: 2.91657 [A], shift/k_B:   0.00000000 [K], tailcorrection: no
  C_CO2 -     O40 [LENNARD_JONES] p_0/k_B:  36.05924 [K], p_1: 2.91657 [A], shift/k_B:   0.00000000 [K], tailcorrection: no
  C_CO2 -     O41 [LENNARD_JONES] p_0/k_B:  36.05924 [K], p_1: 2.91657 [A], shift/k_B:   0.00000000 [K], tailcorrection: no
  C_CO2 -     O42 [LENNARD_JONES] p_0/k_B:  36.05924 [K], p_1: 2.91657 [A], shift/k_B:   0.00000000 [K], tailcorrection: no
  C_CO2 -     O43 [LENNARD_JONES] p_0/k_B:  36.05924 [K], p_1: 2.91657 [A], shift/k_B:   0.00000000 [K], tailcorrection: no
  C_CO2 -     O44 [LENNARD_JONES] p_0/k_B:  36.05924 [K], p_1: 2.91657 [A], shift/k_B:   0.00000000 [K], tailcorrection: no
  C_CO2 -     O45 [LENNARD_JONES] p_0/k_B:  36.05924 [K], p_1: 2.91657 [A], shift/k_B:   0.00000000 [K], tailcorrection: no
  C_CO2 -     O46 [LENNARD_JONES] p_0/k_B:  36.05924 [K], p_1: 2.91657 [A], shift/k_B:   0.00000000 [K], tailcorrection: no
  C_CO2 -     O47 [LENNARD_JONES] p_0/k_B:  36.05924 [K], p_1: 2.91657 [A], shift/k_B:   0.00000000 [K], tailcorrection: no
  C_CO2 -     O48 [LENNARD_JONES] p_0/k_B:  36.05924 [K], p_1: 2.91657 [A], shift/k_B:   0.00000000 [K], tailcorrection: no
  C_CO2 -     O49 [LENNARD_JONES] p_0/k_B:  36.05924 [K], p_1: 2.91657 [A], shift/k_B:   0.00000000 [K], tailcorrection: no
  C_CO2 -     O50 [LENNARD_JONES] p_0/k_B:  36.05924 [K], p_1: 2.91657 [A], shift/k_B:   0.00000000 [K], tailcorrection: no
  C_CO2 -     O51 [LENNARD_JONES] p_0/k_B:  36.05924 [K], p_1: 2.91657 [A], shift/k_B:   0.00000000 [K], tailcorrection: no
  C_CO2 -     O52 [LENNARD_JONES] p_0/k_B:  36.05924 [K], p_1: 2.91657 [A], shift/k_B:   0.00000000 [K], tailcorrection: no
  C_CO2 -     O53 [LENNARD_JONES] p_0/k_B:  36.05924 [K], p_1: 2.91657 [A], shift/k_B:   0.00000000 [K], tailcorrection: no
    CH2 -     CH2 [LENNARD_JONES] p_0/k_B:  85.00000 [K], p_1: 3.67500 [A], shift/k_B:   0.00000000 [K], tailcorrection: no
    CH2 -      Mg [GENERIC2_HC] p_0/k_B:  0.00000 [K], p_1:  0.00000 [A^-1], p_2/k_B: 109517.00000 [K A^4], p_3/k_B: 28836.00000 [K A^6], p_4/k_B:  0.00000 [K A^8], p_5/k_B: -62732550.00000 [K A^12]
    CH2 -      Cu [GENERIC2_HC] p_0/k_B:  0.00000 [K], p_1:  0.00000 [A^-1], p_2/k_B: 87983.00000 [K A^4], p_3/k_B: 38319.00000 [K A^6], p_4/k_B:  0.00000 [K A^8], p_5/k_B: -20618801.00000 [K A^12]
    CH2 -      Co [GENERIC2_HC] p_0/k_B:  0.00000 [K], p_1:  0.00000 [A^-1], p_2/k_B: 30304.00000 [K A^4], p_3/k_B: 638602.00000 [K A^6], p_4/k_B:  0.00000 [K A^8], p_5/k_B: -48381872.00000 [K A^12]
    CH2 -      Fe [GENERIC2_HC] p_0/k_B:  0.00000 [K], p_1:  0.00000 [A^-1], p_2/k_B: 69673.00000 [K A^4], p_3/k_B: 34362.00000 [K A^6], p_4/k_B:  0.00000 [K A^8], p_5/k_B: -20686371.00000 [K A^12]
    CH2 -      Mn [GENERIC2_HC] p_0/k_B:  0.00000 [K], p_1:  0.00000 [A^-1], p_2/k_B: 102067.00000 [K A^4], p_3/k_B: 33986.00000 [K A^6], p_4/k_B:  0.00000 [K A^8], p_5/k_B: -86547535.00000 [K A^12]
    CH2 -      Ni [GENERIC2_HC] p_0/k_B:  0.00000 [K], p_1:  0.00000 [A^-1], p_2/k_B: 59886.00000 [K A^4], p_3/k_B: 395898.00000 [K A^6], p_4/k_B:  0.00000 [K A^8], p_5/k_B: -46916620.00000 [K A^12]
    CH2 -      Zn [GENERIC2_HC] p_0/k_B:  0.00000 [K], p_1:  0.00000 [A^-1], p_2/k_B: 74051.00000 [K A^4], p_3/k_B: 30985.00000 [K A^6], p_4/k_B:  0.00000 [K A^8], p_5/k_B: -44003159.00000 [K A^12]
    CH2 -       C [LENNARD_JONES] p_0/k_B:  63.77913 [K], p_1: 3.57400 [A], shift/k_B:   0.00000000 [K], tailcorrection: no
    CH2 -       O [LENNARD_JONES] p_0/k_B:  63.97999 [K], p_1: 3.35407 [A], shift/k_B:   0.00000000 [K], tailcorrection: no
    CH2 -       H [LENNARD_JONES] p_0/k_B:  25.49822 [K], p_1: 3.26071 [A], shift/k_B:   0.00000000 [K], tailcorrection: no
    CH2 - OwH2O_TIP4P [LENNARD_JONES] p_0/k_B:  81.42481 [K], p_1: 3.41450 [A], shift/k_B:   0.00000000 [K], tailcorrection: no
    CH2 - HwH2O_TIP4P [ZERO_POTENTIAL]
    CH2 - MwH2O_TIP4P [ZERO_POTENTIAL]
    CH2 - OwH2O_TIP4PEW [LENNARD_JONES] p_0/k_B:  83.43560 [K], p_1: 3.41950 [A], shift/k_B:   0.00000000 [K], tailcorrection: no
    CH2 - HwH2O_TIP4PEW [ZERO_POTENTIAL]
    CH2 - MwH2O_TIP4PEW [ZERO_POTENTIAL]
    CH2 - OwH2O_TIP5P [LENNARD_JONES] p_0/k_B:  82.72968 [K], p_1: 3.39750 [A], shift/k_B:   0.00000000 [K], tailcorrection: no
    CH2 - HwH2O_TIP5P [ZERO_POTENTIAL]
    CH2 - MwH2O_TIP5P [ZERO_POTENTIAL]
    CH2 - OwH2O_TIP5PEW [LENNARD_JONES] p_0/k_B:  87.25509 [K], p_1: 3.38600 [A], shift/k_B:   0.00000000 [K], tailcorrection: no
    CH2 - HwH2O_TIP5PEW [ZERO_POTENTIAL]
    CH2 - MwH2O_TIP5PEW [ZERO_POTENTIAL]
    CH2 -     Mg0 [GENERIC2_HC] p_0/k_B:  0.00000 [K], p_1:  0.00000 [A^-1], p_2/k_B: 109517.00000 [K A^4], p_3/k_B: 28836.00000 [K A^6], p_4/k_B:  0.00000 [K A^8], p_5/k_B: -62732550.00000 [K A^12]
    CH2 -     Mg1 [GENERIC2_HC] p_0/k_B:  0.00000 [K], p_1:  0.00000 [A^-1], p_2/k_B: 109517.00000 [K A^4], p_3/k_B: 28836.00000 [K A^6], p_4/k_B:  0.00000 [K A^8], p_5/k_B: -62732550.00000 [K A^12]
    CH2 -     Mg2 [GENERIC2_HC] p_0/k_B:  0.00000 [K], p_1:  0.00000 [A^-1], p_2/k_B: 109517.00000 [K A^4], p_3/k_B: 28836.00000 [K A^6], p_4/k_B:  0.00000 [K A^8], p_5/k_B: -62732550.00000 [K A^12]
    CH2 -     Mg3 [GENERIC2_HC] p_0/k_B:  0.00000 [K], p_1:  0.00000 [A^-1], p_2/k_B: 109517.00000 [K A^4], p_3/k_B: 28836.00000 [K A^6], p_4/k_B:  0.00000 [K A^8], p_5/k_B: -62732550.00000 [K A^12]
    CH2 -     Mg4 [GENERIC2_HC] p_0/k_B:  0.00000 [K], p_1:  0.00000 [A^-1], p_2/k_B: 109517.00000 [K A^4], p_3/k_B: 28836.00000 [K A^6], p_4/k_B:  0.00000 [K A^8], p_5/k_B: -62732550.00000 [K A^12]
    CH2 -     Mg5 [GENERIC2_HC] p_0/k_B:  0.00000 [K], p_1:  0.00000 [A^-1], p_2/k_B: 109517.00000 [K A^4], p_3/k_B: 28836.00000 [K A^6], p_4/k_B:  0.00000 [K A^8], p_5/k_B: -62732550.00000 [K A^12]
    CH2 -      H6 [LENNARD_JONES] p_0/k_B:  25.49822 [K], p_1: 3.26071 [A], shift/k_B:   0.00000000 [K], tailcorrection: no
    CH2 -      H7 [LENNARD_JONES] p_0/k_B:  25.49822 [K], p_1: 3.26071 [A], shift/k_B:   0.00000000 [K], tailcorrection: no
    CH2 -      H8 [LENNARD_JONES] p_0/k_B:  25.49822 [K], p_1: 3.26071 [A], shift/k_B:   0.00000000 [K], tailcorrection: no
    CH2 -      H9 [LENNARD_JONES] p_0/k_B:  25.49822 [K], p_1: 3.26071 [A], shift/k_B:   0.00000000 [K], tailcorrection: no
    CH2 -     H10 [LENNARD_JONES] p_0/k_B:  25.49822 [K], p_1: 3.26071 [A], shift/k_B:   0.00000000 [K], tailcorrection: no
    CH2 -     H11 [LENNARD_JONES] p_0/k_B:  25.49822 [K], p_1: 3.26071 [A], shift/k_B:   0.00000000 [K], tailcorrection: no
    CH2 -     C12 [LENNARD_JONES] p_0/k_B:  63.77913 [K], p_1: 3.57400 [A], shift/k_B:   0.00000000 [K], tailcorrection: no
    CH2 -     C13 [LENNARD_JONES] p_0/k_B:  63.77913 [K], p_1: 3.57400 [A], shift/k_B:   0.00000000 [K], tailcorrection: no
    CH2 -     C14 [LENNARD_JONES] p_0/k_B:  63.77913 [K], p_1: 3.57400 [A], shift/k_B:   0.00000000 [K], tailcorrection: no
    CH2 -     C15 [LENNARD_JONES] p_0/k_B:  63.77913 [K], p_1: 3.57400 [A], shift/k_B:   0.00000000 [K], tailcorrection: no
    CH2 -     C16 [LENNARD_JONES] p_0/k_B:  63.77913 [K], p_1: 3.57400 [A], shift/k_B:   0.00000000 [K], tailcorrection: no
    CH2 -     C17 [LENNARD_JONES] p_0/k_B:  63.77913 [K], p_1: 3.57400 [A], shift/k_B:   0.00000000 [K], tailcorrection: no
    CH2 -     C18 [LENNARD_JONES] p_0/k_B:  63.77913 [K], p_1: 3.57400 [A], shift/k_B:   0.00000000 [K], tailcorrection: no
    CH2 -     C19 [LENNARD_JONES] p_0/k_B:  63.77913 [K], p_1: 3.57400 [A], shift/k_B:   0.00000000 [K], tailcorrection: no
    CH2 -     C20 [LENNARD_JONES] p_0/k_B:  63.77913 [K], p_1: 3.57400 [A], shift/k_B:   0.00000000 [K], tailcorrection: no
    CH2 -     C21 [LENNARD_JONES] p_0/k_B:  63.77913 [K], p_1: 3.57400 [A], shift/k_B:   0.00000000 [K], tailcorrection: no
    CH2 -     C22 [LENNARD_JONES] p_0/k_B:  63.77913 [K], p_1: 3.57400 [A], shift/k_B:   0.00000000 [K], tailcorrection: no
    CH2 -     C23 [LENNARD_JONES] p_0/k_B:  63.77913 [K], p_1: 3.57400 [A], shift/k_B:   0.00000000 [K], tailcorrection: no
    CH2 -     C24 [LENNARD_JONES] p_0/k_B:  63.77913 [K], p_1: 3.57400 [A], shift/k_B:   0.00000000 [K], tailcorrection: no
    CH2 -     C25 [LENNARD_JONES] p_0/k_B:  63.77913 [K], p_1: 3.57400 [A], shift/k_B:   0.00000000 [K], tailcorrection: no
    CH2 -     C26 [LENNARD_JONES] p_0/k_B:  63.77913 [K], p_1: 3.57400 [A], shift/k_B:   0.00000000 [K], tailcorrection: no
    CH2 -     C27 [LENNARD_JONES] p_0/k_B:  63.77913 [K], p_1: 3.57400 [A], shift/k_B:   0.00000000 [K], tailcorrection: no
    CH2 -     C28 [LENNARD_JONES] p_0/k_B:  63.77913 [K], p_1: 3.57400 [A], shift/k_B:   0.00000000 [K], tailcorrection: no
    CH2 -     C29 [LENNARD_JONES] p_0/k_B:  63.77913 [K], p_1: 3.57400 [A], shift/k_B:   0.00000000 [K], tailcorrection: no
    CH2 -     C30 [LENNARD_JONES] p_0/k_B:  63.77913 [K], p_1: 3.57400 [A], shift/k_B:   0.00000000 [K], tailcorrection: no
    CH2 -     C31 [LENNARD_JONES] p_0/k_B:  63.77913 [K], p_1: 3.57400 [A], shift/k_B:   0.00000000 [K], tailcorrection: no
    CH2 -     C32 [LENNARD_JONES] p_0/k_B:  63.77913 [K], p_1: 3.57400 [A], shift/k_B:   0.00000000 [K], tailcorrection: no
    CH2 -     C33 [LENNARD_JONES] p_0/k_B:  63.77913 [K], p_1: 3.57400 [A], shift/k_B:   0.00000000 [K], tailcorrection: no
    CH2 -     C34 [LENNARD_JONES] p_0/k_B:  63.77913 [K], p_1: 3.57400 [A], shift/k_B:   0.00000000 [K], tailcorrection: no
    CH2 -     C35 [LENNARD_JONES] p_0/k_B:  63.77913 [K], p_1: 3.57400 [A], shift/k_B:   0.00000000 [K], tailcorrection: no
    CH2 -     O36 [LENNARD_JONES] p_0/k_B:  63.97999 [K], p_1: 3.35407 [A], shift/k_B:   0.00000000 [K], tailcorrection: no
    CH2 -     O37 [LENNARD_JONES] p_0/k_B:  63.97999 [K], p_1: 3.35407 [A], shift/k_B:   0.00000000 [K], tailcorrection: no
    CH2 -     O38 [LENNARD_JONES] p_0/k_B:  63.97999 [K], p_1: 3.35407 [A], shift/k_B:   0.00000000 [K], tailcorrection: no
    CH2 -     O39 [LENNARD_JONES] p_0/k_B:  63.97999 [K], p_1: 3.35407 [A], shift/k_B:   0.00000000 [K], tailcorrection: no
    CH2 -     O40 [LENNARD_JONES] p_0/k_B:  63.97999 [K], p_1: 3.35407 [A], shift/k_B:   0.00000000 [K], tailcorrection: no
    CH2 -     O41 [LENNARD_JONES] p_0/k_B:  63.97999 [K], p_1: 3.35407 [A], shift/k_B:   0.00000000 [K], tailcorrection: no
    CH2 -     O42 [LENNARD_JONES] p_0/k_B:  63.97999 [K], p_1: 3.35407 [A], shift/k_B:   0.00000000 [K], tailcorrection: no
    CH2 -     O43 [LENNARD_JONES] p_0/k_B:  63.97999 [K], p_1: 3.35407 [A], shift/k_B:   0.00000000 [K], tailcorrection: no
    CH2 -     O44 [LENNARD_JONES] p_0/k_B:  63.97999 [K], p_1: 3.35407 [A], shift/k_B:   0.00000000 [K], tailcorrection: no
    CH2 -     O45 [LENNARD_JONES] p_0/k_B:  63.97999 [K], p_1: 3.35407 [A], shift/k_B:   0.00000000 [K], tailcorrection: no
    CH2 -     O46 [LENNARD_JONES] p_0/k_B:  63.97999 [K], p_1: 3.35407 [A], shift/k_B:   0.00000000 [K], tailcorrection: no
    CH2 -     O47 [LENNARD_JONES] p_0/k_B:  63.97999 [K], p_1: 3.35407 [A], shift/k_B:   0.00000000 [K], tailcorrection: no
    CH2 -     O48 [LENNARD_JONES] p_0/k_B:  63.97999 [K], p_1: 3.35407 [A], shift/k_B:   0.00000000 [K], tailcorrection: no
    CH2 -     O49 [LENNARD_JONES] p_0/k_B:  63.97999 [K], p_1: 3.35407 [A], shift/k_B:   0.00000000 [K], tailcorrection: no
    CH2 -     O50 [LENNARD_JONES] p_0/k_B:  63.97999 [K], p_1: 3.35407 [A], shift/k_B:   0.00000000 [K], tailcorrection: no
    CH2 -     O51 [LENNARD_JONES] p_0/k_B:  63.97999 [K], p_1: 3.35407 [A], shift/k_B:   0.00000000 [K], tailcorrection: no
    CH2 -     O52 [LENNARD_JONES] p_0/k_B:  63.97999 [K], p_1: 3.35407 [A], shift/k_B:   0.00000000 [K], tailcorrection: no
    CH2 -     O53 [LENNARD_JONES] p_0/k_B:  63.97999 [K], p_1: 3.35407 [A], shift/k_B:   0.00000000 [K], tailcorrection: no
     Mg -      Mg [LENNARD_JONES] p_0/k_B:  55.85740 [K], p_1: 2.69141 [A], shift/k_B:   0.00000000 [K], tailcorrection: no
     Mg -      Cu [LENNARD_JONES] p_0/k_B:  11.85508 [K], p_1: 2.90255 [A], shift/k_B:   0.00000000 [K], tailcorrection: no
     Mg -      Co [LENNARD_JONES] p_0/k_B:  19.83732 [K], p_1: 2.62504 [A], shift/k_B:   0.00000000 [K], tailcorrection: no
     Mg -      Fe [LENNARD_JONES] p_0/k_B:  19.11572 [K], p_1: 2.64285 [A], shift/k_B:   0.00000000 [K], tailcorrection: no
     Mg -      Mn [LENNARD_JONES] p_0/k_B:  19.11572 [K], p_1: 2.66468 [A], shift/k_B:   0.00000000 [K], tailcorrection: no
     Mg -      Ni [LENNARD_JONES] p_0/k_B:  20.53358 [K], p_1: 2.60811 [A], shift/k_B:   0.00000000 [K], tailcorrection: no
     Mg -      Zn [LENNARD_JONES] p_0/k_B:  59.03776 [K], p_1: 2.57648 [A], shift/k_B:   0.00000000 [K], tailcorrection: no
     Mg -       C [LENNARD_JONES] p_0/k_B:  51.70225 [K], p_1: 3.08220 [A], shift/k_B:   0.00000000 [K], tailcorrection: no
     Mg -       O [LENNARD_JONES] p_0/k_B:  51.86508 [K], p_1: 2.86228 [A], shift/k_B:   0.00000000 [K], tailcorrection: no
     Mg -       H [LENNARD_JONES] p_0/k_B:  20.67001 [K], p_1: 2.76891 [A], shift/k_B:   0.00000000 [K], tailcorrection: no
     Mg - OwH2O_TIP4P [GENERIC2_HC] p_0/k_B:  0.00000 [K], p_1:  0.00000 [A^-1], p_2/k_B: 11517.00000 [K A^4], p_3/k_B: 3431.00000 [K A^6], p_4/k_B:  0.00000 [K A^8], p_5/k_B: -14158541.00000 [K A^12]
     Mg - HwH2O_TIP4P [ZERO_POTENTIAL]
     Mg - MwH2O_TIP4P [ZERO_POTENTIAL]
     Mg - OwH2O_TIP4PEW [GENERIC2_HC] p_0/k_B:  0.00000 [K], p_1:  0.00000 [A^-1], p_2/k_B: 5458.00000 [K A^4], p_3/k_B: 2234.00000 [K A^6], p_4/k_B:  0.00000 [K A^8], p_5/k_B: -14427061.00000 [K A^12]
     Mg - HwH2O_TIP4PEW [ZERO_POTENTIAL]
     Mg - MwH2O_TIP4PEW [ZERO_POTENTIAL]
     Mg - OwH2O_TIP5P [GENERIC2_HC] p_0/k_B:  0.00000 [K], p_1:  0.00000 [A^-1], p_2/k_B: 134320.00000 [K A^4], p_3/k_B: 38622.00000 [K A^6], p_4/k_B:  0.00000 [K A^8], p_5/k_B: -14801076.00000 [K A^12]
     Mg - HwH2O_TIP5P [ZERO_POTENTIAL]
     Mg - MwH2O_TIP5P [ZERO_POTENTIAL]
     Mg - OwH2O_TIP5PEW [LENNARD_JONES] p_0/k_B:  70.73293 [K], p_1: 2.89420 [A], shift/k_B:   0.00000000 [K], tailcorrection: no
     Mg - HwH2O_TIP5PEW [ZERO_POTENTIAL]
     Mg - MwH2O_TIP5PEW [ZERO_POTENTIAL]
     Mg -     Mg0 [LENNARD_JONES] p_0/k_B:  55.85740 [K], p_1: 2.69141 [A], shift/k_B:   0.00000000 [K], tailcorrection: no
     Mg -     Mg1 [LENNARD_JONES] p_0/k_B:  55.85740 [K], p_1: 2.69141 [A], shift/k_B:   0.00000000 [K], tailcorrection: no
     Mg -     Mg2 [LENNARD_JONES] p_0/k_B:  55.85740 [K], p_1: 2.69141 [A], shift/k_B:   0.00000000 [K], tailcorrection: no
     Mg -     Mg3 [LENNARD_JONES] p_0/k_B:  55.85740 [K], p_1: 2.69141 [A], shift/k_B:   0.00000000 [K], tailcorrection: no
     Mg -     Mg4 [LENNARD_JONES] p_0/k_B:  55.85740 [K], p_1: 2.69141 [A], shift/k_B:   0.00000000 [K], tailcorrection: no
     Mg -     Mg5 [LENNARD_JONES] p_0/k_B:  55.85740 [K], p_1: 2.69141 [A], shift/k_B:   0.00000000 [K], tailcorrection: no
     Mg -      H6 [LENNARD_JONES] p_0/k_B:  20.67001 [K], p_1: 2.76891 [A], shift/k_B:   0.00000000 [K], tailcorrection: no
     Mg -      H7 [LENNARD_JONES] p_0/k_B:  20.67001 [K], p_1: 2.76891 [A], shift/k_B:   0.00000000 [K], tailcorrection: no
     Mg -      H8 [LENNARD_JONES] p_0/k_B:  20.67001 [K], p_1: 2.76891 [A], shift/k_B:   0.00000000 [K], tailcorrection: no
     Mg -      H9 [LENNARD_JONES] p_0/k_B:  20.67001 [K], p_1: 2.76891 [A], shift/k_B:   0.00000000 [K], tailcorrection: no
     Mg -     H10 [LENNARD_JONES] p_0/k_B:  20.67001 [K], p_1: 2.76891 [A], shift/k_B:   0.00000000 [K], tailcorrection: no
     Mg -     H11 [LENNARD_JONES] p_0/k_B:  20.67001 [K], p_1: 2.76891 [A], shift/k_B:   0.00000000 [K], tailcorrection: no
     Mg -     C12 [LENNARD_JONES] p_0/k_B:  51.70225 [K], p_1: 3.08220 [A], shift/k_B:   0.00000000 [K], tailcorrection: no
     Mg -     C13 [LENNARD_JONES] p_0/k_B:  51.70225 [K], p_1: 3.08220 [A], shift/k_B:   0.00000000 [K], tailcorrection: no
     Mg -     C14 [LENNARD_JONES] p_0/k_B:  51.70225 [K], p_1: 3.08220 [A], shift/k_B:   0.00000000 [K], tailcorrection: no
     Mg -     C15 [LENNARD_JONES] p_0/k_B:  51.70225 [K], p_1: 3.08220 [A], shift/k_B:   0.00000000 [K], tailcorrection: no
     Mg -     C16 [LENNARD_JONES] p_0/k_B:  51.70225 [K], p_1: 3.08220 [A], shift/k_B:   0.00000000 [K], tailcorrection: no
     Mg -     C17 [LENNARD_JONES] p_0/k_B:  51.70225 [K], p_1: 3.08220 [A], shift/k_B:   0.00000000 [K], tailcorrection: no
     Mg -     C18 [LENNARD_JONES] p_0/k_B:  51.70225 [K], p_1: 3.08220 [A], shift/k_B:   0.00000000 [K], tailcorrection: no
     Mg -     C19 [LENNARD_JONES] p_0/k_B:  51.70225 [K], p_1: 3.08220 [A], shift/k_B:   0.00000000 [K], tailcorrection: no
     Mg -     C20 [LENNARD_JONES] p_0/k_B:  51.70225 [K], p_1: 3.08220 [A], shift/k_B:   0.00000000 [K], tailcorrection: no
     Mg -     C21 [LENNARD_JONES] p_0/k_B:  51.70225 [K], p_1: 3.08220 [A], shift/k_B:   0.00000000 [K], tailcorrection: no
     Mg -     C22 [LENNARD_JONES] p_0/k_B:  51.70225 [K], p_1: 3.08220 [A], shift/k_B:   0.00000000 [K], tailcorrection: no
     Mg -     C23 [LENNARD_JONES] p_0/k_B:  51.70225 [K], p_1: 3.08220 [A], shift/k_B:   0.00000000 [K], tailcorrection: no
     Mg -     C24 [LENNARD_JONES] p_0/k_B:  51.70225 [K], p_1: 3.08220 [A], shift/k_B:   0.00000000 [K], tailcorrection: no
     Mg -     C25 [LENNARD_JONES] p_0/k_B:  51.70225 [K], p_1: 3.08220 [A], shift/k_B:   0.00000000 [K], tailcorrection: no
     Mg -     C26 [LENNARD_JONES] p_0/k_B:  51.70225 [K], p_1: 3.08220 [A], shift/k_B:   0.00000000 [K], tailcorrection: no
     Mg -     C27 [LENNARD_JONES] p_0/k_B:  51.70225 [K], p_1: 3.08220 [A], shift/k_B:   0.00000000 [K], tailcorrection: no
     Mg -     C28 [LENNARD_JONES] p_0/k_B:  51.70225 [K], p_1: 3.08220 [A], shift/k_B:   0.00000000 [K], tailcorrection: no
     Mg -     C29 [LENNARD_JONES] p_0/k_B:  51.70225 [K], p_1: 3.08220 [A], shift/k_B:   0.00000000 [K], tailcorrection: no
     Mg -     C30 [LENNARD_JONES] p_0/k_B:  51.70225 [K], p_1: 3.08220 [A], shift/k_B:   0.00000000 [K], tailcorrection: no
     Mg -     C31 [LENNARD_JONES] p_0/k_B:  51.70225 [K], p_1: 3.08220 [A], shift/k_B:   0.00000000 [K], tailcorrection: no
     Mg -     C32 [LENNARD_JONES] p_0/k_B:  51.70225 [K], p_1: 3.08220 [A], shift/k_B:   0.00000000 [K], tailcorrection: no
     Mg -     C33 [LENNARD_JONES] p_0/k_B:  51.70225 [K], p_1: 3.08220 [A], shift/k_B:   0.00000000 [K], tailcorrection: no
     Mg -     C34 [LENNARD_JONES] p_0/k_B:  51.70225 [K], p_1: 3.08220 [A], shift/k_B:   0.00000000 [K], tailcorrection: no
     Mg -     C35 [LENNARD_JONES] p_0/k_B:  51.70225 [K], p_1: 3.08220 [A], shift/k_B:   0.00000000 [K], tailcorrection: no
     Mg -     O36 [LENNARD_JONES] p_0/k_B:  51.86508 [K], p_1: 2.86228 [A], shift/k_B:   0.00000000 [K], tailcorrection: no
     Mg -     O37 [LENNARD_JONES] p_0/k_B:  51.86508 [K], p_1: 2.86228 [A], shift/k_B:   0.00000000 [K], tailcorrection: no
     Mg -     O38 [LENNARD_JONES] p_0/k_B:  51.86508 [K], p_1: 2.86228 [A], shift/k_B:   0.00000000 [K], tailcorrection: no
     Mg -     O39 [LENNARD_JONES] p_0/k_B:  51.86508 [K], p_1: 2.86228 [A], shift/k_B:   0.00000000 [K], tailcorrection: no
     Mg -     O40 [LENNARD_JONES] p_0/k_B:  51.86508 [K], p_1: 2.86228 [A], shift/k_B:   0.00000000 [K], tailcorrection: no
     Mg -     O41 [LENNARD_JONES] p_0/k_B:  51.86508 [K], p_1: 2.86228 [A], shift/k_B:   0.00000000 [K], tailcorrection: no
     Mg -     O42 [LENNARD_JONES] p_0/k_B:  51.86508 [K], p_1: 2.86228 [A], shift/k_B:   0.00000000 [K], tailcorrection: no
     Mg -     O43 [LENNARD_JONES] p_0/k_B:  51.86508 [K], p_1: 2.86228 [A], shift/k_B:   0.00000000 [K], tailcorrection: no
     Mg -     O44 [LENNARD_JONES] p_0/k_B:  51.86508 [K], p_1: 2.86228 [A], shift/k_B:   0.00000000 [K], tailcorrection: no
     Mg -     O45 [LENNARD_JONES] p_0/k_B:  51.86508 [K], p_1: 2.86228 [A], shift/k_B:   0.00000000 [K], tailcorrection: no
     Mg -     O46 [LENNARD_JONES] p_0/k_B:  51.86508 [K], p_1: 2.86228 [A], shift/k_B:   0.00000000 [K], tailcorrection: no
     Mg -     O47 [LENNARD_JONES] p_0/k_B:  51.86508 [K], p_1: 2.86228 [A], shift/k_B:   0.00000000 [K], tailcorrection: no
[...]
	Block[ 4]            0.00000 [K]
	------------------------------------------------------------------------------
	Average              0.00000 [K] +/-            0.00000 [K]

Average Cation Torsion energy:
==============================
	Block[ 0]            0.00000 [K]
	Block[ 1]            0.00000 [K]
	Block[ 2]            0.00000 [K]
	Block[ 3]            0.00000 [K]
	Block[ 4]            0.00000 [K]
	------------------------------------------------------------------------------
	Average              0.00000 [K] +/-            0.00000 [K]

Average Cation Improper Torsion energy:
=======================================
	Block[ 0]            0.00000 [K]
	Block[ 1]            0.00000 [K]
	Block[ 2]            0.00000 [K]
	Block[ 3]            0.00000 [K]
	Block[ 4]            0.00000 [K]
	------------------------------------------------------------------------------
	Average              0.00000 [K] +/-            0.00000 [K]

Average Cation Bond-Bond cross term energy:
=================================================
	Block[ 0]            0.00000 [K]
	Block[ 1]            0.00000 [K]
	Block[ 2]            0.00000 [K]
	Block[ 3]            0.00000 [K]
	Block[ 4]            0.00000 [K]
	------------------------------------------------------------------------------
	Average              0.00000 [K] +/-            0.00000 [K]

Average Cation Bend-Bend cross term energy:
===========================================
	Block[ 0]            0.00000 [K]
	Block[ 1]            0.00000 [K]
	Block[ 2]            0.00000 [K]
	Block[ 3]            0.00000 [K]
	Block[ 4]            0.00000 [K]
	------------------------------------------------------------------------------
	Average              0.00000 [K] +/-            0.00000 [K]

Average Cation Bond-Bend cross term energy:
==============================================
	Block[ 0]            0.00000 [K]
	Block[ 1]            0.00000 [K]
	Block[ 2]            0.00000 [K]
	Block[ 3]            0.00000 [K]
	Block[ 4]            0.00000 [K]
	------------------------------------------------------------------------------
	Average              0.00000 [K] +/-            0.00000 [K]

Average Cation Bond-Torsion cross term energy:
==============================================
	Block[ 0]            0.00000 [K]
	Block[ 1]            0.00000 [K]
	Block[ 2]            0.00000 [K]
	Block[ 3]            0.00000 [K]
	Block[ 4]            0.00000 [K]
	------------------------------------------------------------------------------
	Average              0.00000 [K] +/-            0.00000 [K]

Average Cation Bend-Torsion cross term energy:
==============================================
	Block[ 0]            0.00000 [K]
	Block[ 1]            0.00000 [K]
	Block[ 2]            0.00000 [K]
	Block[ 3]            0.00000 [K]
	Block[ 4]            0.00000 [K]
	------------------------------------------------------------------------------
	Average              0.00000 [K] +/-            0.00000 [K]

Average Cation Intra Van der Waals energy:
==========================================
	Block[ 0]            0.00000 [K]
	Block[ 1]            0.00000 [K]
	Block[ 2]            0.00000 [K]
	Block[ 3]            0.00000 [K]
	Block[ 4]            0.00000 [K]
	------------------------------------------------------------------------------
	Average              0.00000 [K] +/-            0.00000 [K]

Average Cation Intra charge-charge Coulomb energy:
====================================
	Block[ 0]            0.00000 [K]
	Block[ 1]            0.00000 [K]
	Block[ 2]            0.00000 [K]
	Block[ 3]            0.00000 [K]
	Block[ 4]            0.00000 [K]
	------------------------------------------------------------------------------
	Average              0.00000 [K] +/-            0.00000 [K]

Average Cation Intra charge-bonddipole Coulomb energy:
====================================
	Block[ 0]            0.00000 [K]
	Block[ 1]            0.00000 [K]
	Block[ 2]            0.00000 [K]
	Block[ 3]            0.00000 [K]
	Block[ 4]            0.00000 [K]
	------------------------------------------------------------------------------
	Average              0.00000 [K] +/-            0.00000 [K]

Average Cation Intra bonddipole-bonddipole Coulomb energy:
====================================
	Block[ 0]            0.00000 [K]
	Block[ 1]            0.00000 [K]
	Block[ 2]            0.00000 [K]
	Block[ 3]            0.00000 [K]
	Block[ 4]            0.00000 [K]
	------------------------------------------------------------------------------
	Average              0.00000 [K] +/-            0.00000 [K]

Average Host-Host energy:
=========================
	Block[ 0] 0.00000            Van der Waals: 0.00000            Coulomb: 0.00000            [K]
	Block[ 1] 0.00000            Van der Waals: 0.00000            Coulomb: 0.00000            [K]
	Block[ 2] 0.00000            Van der Waals: 0.00000            Coulomb: 0.00000            [K]
	Block[ 3] 0.00000            Van der Waals: 0.00000            Coulomb: 0.00000            [K]
	Block[ 4] 0.00000            Van der Waals: 0.00000            Coulomb: 0.00000            [K]
	------------------------------------------------------------------------------
	Average   0.00000            Van der Waals: 0.000000           Coulomb: 0.00000            [K]
	      +/- 0.00000                       +/- 0.000000                +/- 0.00000            [K]

Average Adsorbate-Adsorbate energy:
===================================
	Block[ 0] -2314256.13638     Van der Waals: 483099.07015       Coulomb: -2797355.20653     [K]
	Block[ 1] -2403321.28156     Van der Waals: 516614.63264       Coulomb: -2919935.91419     [K]
	Block[ 2] -2443141.57058     Van der Waals: 532868.90653       Coulomb: -2976010.47711     [K]
	Block[ 3] -2459589.71487     Van der Waals: 543378.86005       Coulomb: -3002968.57492     [K]
	Block[ 4] -2437000.13095     Van der Waals: 531199.57402       Coulomb: -2968199.70497     [K]
	------------------------------------------------------------------------------
	Average   -2411461.76687     Van der Waals: 521432.208677      Coulomb: -2932893.97554     [K]
	      +/- 72088.71538                   +/- 29118.199200            +/- 101152.05769       [K]

Average Cation-Cation energy:
=============================
	Block[ 0] 0.00000            Van der Waals: 0.00000            Coulomb: 0.00000            [K]
	Block[ 1] 0.00000            Van der Waals: 0.00000            Coulomb: 0.00000            [K]
	Block[ 2] 0.00000            Van der Waals: 0.00000            Coulomb: 0.00000            [K]
	Block[ 3] 0.00000            Van der Waals: 0.00000            Coulomb: 0.00000            [K]
	Block[ 4] 0.00000            Van der Waals: 0.00000            Coulomb: 0.00000            [K]
	------------------------------------------------------------------------------
	Average   0.00000            Van der Waals: 0.000000           Coulomb: 0.00000            [K]
	      +/- 0.00000                       +/- 0.000000                +/- 0.00000            [K]

Average Host-Adsorbate energy:
==============================
	Block[ 0] -1012460.59927     Van der Waals: -115690.34431      Coulomb: -896770.25495      [K]
	Block[ 1] -1035621.29600     Van der Waals: -119789.56623      Coulomb: -915831.72977      [K]
	Block[ 2] -1051388.18095     Van der Waals: -115601.12350      Coulomb: -935787.05746      [K]
	Block[ 3] -1048433.14475     Van der Waals: -118361.95750      Coulomb: -930071.18725      [K]
	Block[ 4] -1048801.05873     Van der Waals: -119021.89034      Coulomb: -929779.16839      [K]
	------------------------------------------------------------------------------
	Average   -1039340.85594     Van der Waals: -117692.976377     Coulomb: -921647.87956      [K]
	      +/- 20149.30986                   +/- 2403.735559             +/- 19528.03168        [K]

Average Host-Cation energy:
===========================
	Block[ 0] 0.00000            Van der Waals: 0.00000            Coulomb: 0.00000            [K]
	Block[ 1] 0.00000            Van der Waals: 0.00000            Coulomb: 0.00000            [K]
	Block[ 2] 0.00000            Van der Waals: 0.00000            Coulomb: 0.00000            [K]
	Block[ 3] 0.00000            Van der Waals: 0.00000            Coulomb: 0.00000            [K]
	Block[ 4] 0.00000            Van der Waals: 0.00000            Coulomb: 0.00000            [K]
	------------------------------------------------------------------------------
	Average   0.00000            Van der Waals: 0.000000           Coulomb: 0.00000            [K]
	      +/- 0.00000                       +/- 0.000000                +/- 0.00000            [K]

Average Adsorbate-Cation energy:
================================
	Block[ 0] 0.00000            Van der Waals: 0.00000            Coulomb: 0.00000            [K]
	Block[ 1] 0.00000            Van der Waals: 0.00000            Coulomb: 0.00000            [K]
	Block[ 2] 0.00000            Van der Waals: 0.00000            Coulomb: 0.00000            [K]
	Block[ 3] 0.00000            Van der Waals: 0.00000            Coulomb: 0.00000            [K]
	Block[ 4] 0.00000            Van der Waals: 0.00000            Coulomb: 0.00000            [K]
	------------------------------------------------------------------------------
	Average   0.00000            Van der Waals: 0.000000           Coulomb: 0.00000            [K]
	      +/- 0.00000                       +/- 0.000000                +/- 0.00000            [K]

Host polarization energy:
=======================
	Block[ 0]            0.00000 [K]
	Block[ 1]            0.00000 [K]
	Block[ 2]            0.00000 [K]
	Block[ 3]            0.00000 [K]
	Block[ 4]            0.00000 [K]
	------------------------------------------------------------------------------
	Average              0.00000 [K] +/-            0.00000 [K]

Adsorbate polarization energy:
=======================
	Block[ 0]            0.00000 [K]
	Block[ 1]            0.00000 [K]
	Block[ 2]            0.00000 [K]
	Block[ 3]            0.00000 [K]
	Block[ 4]            0.00000 [K]
	------------------------------------------------------------------------------
	Average              0.00000 [K] +/-            0.00000 [K]

Cation polarization energy:
=======================
	Block[ 0]            0.00000 [K]
	Block[ 1]            0.00000 [K]
	Block[ 2]            0.00000 [K]
	Block[ 3]            0.00000 [K]
	Block[ 4]            0.00000 [K]
	------------------------------------------------------------------------------
	Average              0.00000 [K] +/-            0.00000 [K]

Host back-polarization energy:
=======================
	Block[ 0]            0.00000 [K]
	Block[ 1]            0.00000 [K]
	Block[ 2]            0.00000 [K]
	Block[ 3]            0.00000 [K]
	Block[ 4]            0.00000 [K]
	------------------------------------------------------------------------------
	Average              0.00000 [K] +/-            0.00000 [K]

Adsorbate back-polarization energy:
=======================
	Block[ 0]            0.00000 [K]
	Block[ 1]            0.00000 [K]
	Block[ 2]            0.00000 [K]
	Block[ 3]            0.00000 [K]
	Block[ 4]            0.00000 [K]
	------------------------------------------------------------------------------
	Average              0.00000 [K] +/-            0.00000 [K]

Cation back-polarization energy:
=======================
	Block[ 0]            0.00000 [K]
	Block[ 1]            0.00000 [K]
	Block[ 2]            0.00000 [K]
	Block[ 3]            0.00000 [K]
	Block[ 4]            0.00000 [K]
	------------------------------------------------------------------------------
	Average              0.00000 [K] +/-            0.00000 [K]

Tail-correction energy:
=======================
	Block[ 0]            0.00000 [K]
	Block[ 1]            0.00000 [K]
	Block[ 2]            0.00000 [K]
	Block[ 3]            0.00000 [K]
	Block[ 4]            0.00000 [K]
	------------------------------------------------------------------------------
	Average              0.00000 [K] +/-            0.00000 [K]

Distance-constraints energy:
=======================
	Block[ 0]            0.00000 [K]
	Block[ 1]            0.00000 [K]
	Block[ 2]            0.00000 [K]
	Block[ 3]            0.00000 [K]
	Block[ 4]            0.00000 [K]
	------------------------------------------------------------------------------
	Average              0.00000 [K] +/-            0.00000 [K]

Angle-constraints energy:
=======================
	Block[ 0]            0.00000 [K]
	Block[ 1]            0.00000 [K]
	Block[ 2]            0.00000 [K]
	Block[ 3]            0.00000 [K]
	Block[ 4]            0.00000 [K]
	------------------------------------------------------------------------------
	Average              0.00000 [K] +/-            0.00000 [K]

Dihedral-constraints energy:
=======================
	Block[ 0]            0.00000 [K]
	Block[ 1]            0.00000 [K]
	Block[ 2]            0.00000 [K]
	Block[ 3]            0.00000 [K]
	Block[ 4]            0.00000 [K]
	------------------------------------------------------------------------------
	Average              0.00000 [K] +/-            0.00000 [K]

Inversion-bend constraints energy:
=======================
	Block[ 0]            0.00000 [K]
	Block[ 1]            0.00000 [K]
	Block[ 2]            0.00000 [K]
	Block[ 3]            0.00000 [K]
	Block[ 4]            0.00000 [K]
	------------------------------------------------------------------------------
	Average              0.00000 [K] +/-            0.00000 [K]

Out-of-plane-distance constraints energy:
=======================
	Block[ 0]            0.00000 [K]
	Block[ 1]            0.00000 [K]
	Block[ 2]            0.00000 [K]
	Block[ 3]            0.00000 [K]
	Block[ 4]            0.00000 [K]
	------------------------------------------------------------------------------
	Average              0.00000 [K] +/-            0.00000 [K]

Exclusion-constraints energy:
=======================
	Block[ 0]            0.00000 [K]
	Block[ 1]            0.00000 [K]
	Block[ 2]            0.00000 [K]
	Block[ 3]            0.00000 [K]
	Block[ 4]            0.00000 [K]
	------------------------------------------------------------------------------
	Average              0.00000 [K] +/-            0.00000 [K]

Total energy:
=============
	Block[ 0]     -3326716.73565 [K]
	Block[ 1]     -3438942.57756 [K]
	Block[ 2]     -3494529.75153 [K]
	Block[ 3]     -3508022.85963 [K]
	Block[ 4]     -3485801.18968 [K]
	------------------------------------------------------------------------------
	Average       -3450802.62281 [K] +/-        91962.90348 [K]

Number of molecules:
====================

Component 0 [TIP4PEW]
-------------------------------------------------------------
	Block[ 0] 473.09125          [-]
	Block[ 1] 486.52735          [-]
	Block[ 2] 492.90515          [-]
	Block[ 3] 492.14000          [-]
	Block[ 4] 492.19385          [-]
	------------------------------------------------------------------------------
	Average loading absolute                            487.3715200000 +/-      10.4100566928 [-]
	Average loading absolute [molecules/unit cell]       30.4607200000 +/-       0.6506285433 [-]
	Average loading absolute [mol/kg framework]                 41.8344707283 +/-       0.8935672154 [-]
	Average loading absolute [milligram/gram framework]        753.0706744743 +/-      16.0852821579 [-]
	Average loading absolute [cm^3 (STP)/gr framework]         937.6768123175 +/-      20.0283938949 [-]
	Average loading absolute [cm^3 (STP)/cm^3 framework]       838.1183161026 +/-      17.9018650615 [-]

	Block[ 0] 473.09125          [-]
	Block[ 1] 486.52735          [-]
	Block[ 2] 492.90515          [-]
	Block[ 3] 492.14000          [-]
	Block[ 4] 492.19385          [-]
	------------------------------------------------------------------------------
	Average loading excess                            487.3715200000 +/-      10.4100566928 [-]
	Average loading excess [molecules/unit cell]       30.4607200000 +/-       0.6506285433 [-]
	Average loading excess [mol/kg framework]                   41.8344707283 +/-       0.8935672154 [-]
	Average loading excess [milligram/gram framework]          753.0706744743 +/-      16.0852821579 [-]
	Average loading excess [cm^3 (STP)/gr framework]           937.6768123175 +/-      20.0283938949 [-]
	Average loading excess [cm^3 (STP)/cm^3 framework]         838.1183161026 +/-      17.9018650615 [-]


Average Widom Rosenbluth factor:
================================
	Block[ 0] 0 [-]
	Block[ 1] 0 [-]
	Block[ 2] 0 [-]
	Block[ 3] 0 [-]
	Block[ 4] 0 [-]
	------------------------------------------------------------------------------
	[TIP4PEW] Average Widom Rosenbluth-weight:   0 +/- 0.000000 [-]

Average Widom chemical potential:
=================================
	Block[ 0] 0 [-]
	Block[ 1] 0 [-]
	Block[ 2] 0 [-]
	Block[ 3] 0 [-]
	Block[ 4] 0 [-]
	------------------------------------------------------------------------------
	[TIP4PEW] Average chemical potential:   0 +/- 0.000000 [K]

Average Widom Ideal-gas contribution:
=====================================
	Block[ 0] 0 [-]
	Block[ 1] 0 [-]
	Block[ 2] 0 [-]
	Block[ 3] 0 [-]
	Block[ 4] 0 [-]
	------------------------------------------------------------------------------
	[TIP4PEW] Average Widom Ideal-gas chemical potential:   0 +/- 0.000000 [-]

Average Widom excess contribution:
==================================
	Block[ 0] 0 [-]
	Block[ 1] 0 [-]
	Block[ 2] 0 [-]
	Block[ 3] 0 [-]
	Block[ 4] 0 [-]
	------------------------------------------------------------------------------
	[TIP4PEW] Average Widom excess chemical potential:   0 +/- 0.000000 [-]

Average Gibbs Widom Rosenbluth factor:
======================================
	Block[ 0] 0 [-]
	Block[ 1] 0 [-]
	Block[ 2] 0 [-]
	Block[ 3] 0 [-]
	Block[ 4] 0 [-]
	------------------------------------------------------------------------------
	[TIP4PEW] Average Gibbs Widom Rosenbluth-weight:   0 +/- 0.000000 [-]

Average Gibbs Widom chemical potential:
=======================================
	Block[ 0] 0 [-]
	Block[ 1] 0 [-]
	Block[ 2] 0 [-]
	Block[ 3] 0 [-]
	Block[ 4] 0 [-]
	------------------------------------------------------------------------------
	[TIP4PEW] Average Gibbs chemical potential:   0 +/- 0.000000 [K]

Average osmostat calibration for alchemical transformation:
=======================================
	Block[ 0] 0 [-]
	Block[ 1] 0 [-]
	Block[ 2] 0 [-]
	Block[ 3] 0 [-]
	Block[ 4] 0 [-]
	------------------------------------------------------------------------------
	Average osmostat calibration for alchemical transformation:   0 +/- 0.000000 [K]
	Average osmostat calibration for alchemical transformation:   0 +/- 0.000000 [kJ/mol]

Average Gibbs Widom Ideal-gas contribution:
===========================================
	Block[ 0] 0 [-]
	Block[ 1] 0 [-]
	Block[ 2] 0 [-]
	Block[ 3] 0 [-]
	Block[ 4] 0 [-]
	------------------------------------------------------------------------------
	[TIP4PEW] Average Gibbs Ideal-gas chemical potential:   0 +/- 0.000000 [-]

Average Gibbs Widom excess contribution:
===========================================
	Block[ 0] 0 [-]
	Block[ 1] 0 [-]
	Block[ 2] 0 [-]
	Block[ 3] 0 [-]
	Block[ 4] 0 [-]
	------------------------------------------------------------------------------
	[TIP4PEW] Average Gibbs excess chemical potential:   0 +/- 0.000000 [-]

Average Henry coefficient:
==========================
	Block[ 0] 0 [mol/kg/Pa]
	Block[ 1] 0 [mol/kg/Pa]
	Block[ 2] 0 [mol/kg/Pa]
	Block[ 3] 0 [mol/kg/Pa]
	Block[ 4] 0 [mol/kg/Pa]
	------------------------------------------------------------------------------
	[TIP4PEW] Average Henry coefficient:  0 +/- 0 [mol/kg/Pa]

Average adsorption energy <U_gh>_1-<U_h>_0 obtained from Widom-insertion:
(Note: the total heat of adsorption is dH=<U_gh>_1-<U_h>_0 - <U_g> - RT)
=========================================================================

Simulation finished,  0 warnings


Mon Sep 22 20:26:49 2025
Simulation finished on Monday, September 22.
The end time was 08:26 PM.

